 Entering Link 1 = C:\G09W\l1.exe PID=      9820.
  
 Copyright (c) 1988,1990,1992,1993,1995,1998,2003,2009,2011,
            Gaussian, Inc.  All Rights Reserved.
  
 This is part of the Gaussian(R) 09 program.  It is based on
 the Gaussian(R) 03 system (copyright 2003, Gaussian, Inc.),
 the Gaussian(R) 98 system (copyright 1998, Gaussian, Inc.),
 the Gaussian(R) 94 system (copyright 1995, Gaussian, Inc.),
 the Gaussian 92(TM) system (copyright 1992, Gaussian, Inc.),
 the Gaussian 90(TM) system (copyright 1990, Gaussian, Inc.),
 the Gaussian 88(TM) system (copyright 1988, Gaussian, Inc.),
 the Gaussian 86(TM) system (copyright 1986, Carnegie Mellon
 University), and the Gaussian 82(TM) system (copyright 1983,
 Carnegie Mellon University). Gaussian is a federally registered
 trademark of Gaussian, Inc.
  
 This software contains proprietary and confidential information,
 including trade secrets, belonging to Gaussian, Inc.
  
 This software is provided under written license and may be
 used, copied, transmitted, or stored only in accord with that
 written license.
  
 The following legend is applicable only to US Government
 contracts under FAR:
  
                    RESTRICTED RIGHTS LEGEND
  
 Use, reproduction and disclosure by the US Government is
 subject to restrictions as set forth in subparagraphs (a)
 and (c) of the Commercial Computer Software - Restricted
 Rights clause in FAR 52.227-19.
  
 Gaussian, Inc.
 340 Quinnipiac St., Bldg. 40, Wallingford CT 06492
  
  
 ---------------------------------------------------------------
 Warning -- This program may not be used in any manner that
 competes with the business of Gaussian, Inc. or will provide
 assistance to any competitor of Gaussian, Inc.  The licensee
 of this program is prohibited from giving any competitor of
 Gaussian, Inc. access to this program.  By using this program,
 the user acknowledges that Gaussian, Inc. is engaged in the
 business of creating and licensing software in the field of
 computational chemistry and represents and warrants to the
 licensee that it is not a competitor of Gaussian, Inc. and that
 it will not use this program in any manner prohibited above.
 ---------------------------------------------------------------
  

 Cite this work as:
 Gaussian 09, Revision C.01,
 M. J. Frisch, G. W. Trucks, H. B. Schlegel, G. E. Scuseria, 
 M. A. Robb, J. R. Cheeseman, G. Scalmani, V. Barone, B. Mennucci, 
 G. A. Petersson, H. Nakatsuji, M. Caricato, X. Li, H. P. Hratchian, 
 A. F. Izmaylov, J. Bloino, G. Zheng, J. L. Sonnenberg, M. Hada, 
 M. Ehara, K. Toyota, R. Fukuda, J. Hasegawa, M. Ishida, T. Nakajima, 
 Y. Honda, O. Kitao, H. Nakai, T. Vreven, J. A. Montgomery, Jr., 
 J. E. Peralta, F. Ogliaro, M. Bearpark, J. J. Heyd, E. Brothers, 
 K. N. Kudin, V. N. Staroverov, T. Keith, R. Kobayashi, J. Normand, 
 K. Raghavachari, A. Rendell, J. C. Burant, S. S. Iyengar, J. Tomasi, 
 M. Cossi, N. Rega, J. M. Millam, M. Klene, J. E. Knox, J. B. Cross, 
 V. Bakken, C. Adamo, J. Jaramillo, R. Gomperts, R. E. Stratmann, 
 O. Yazyev, A. J. Austin, R. Cammi, C. Pomelli, J. W. Ochterski, 
 R. L. Martin, K. Morokuma, V. G. Zakrzewski, G. A. Voth, 
 P. Salvador, J. J. Dannenberg, S. Dapprich, A. D. Daniels, 
 O. Farkas, J. B. Foresman, J. V. Ortiz, J. Cioslowski, 
 and D. J. Fox, Gaussian, Inc., Wallingford CT, 2010.
 
 ******************************************
 Gaussian 09:  IA32W-G09RevC.01 23-Sep-2011
                22-May-2026 
 ******************************************
 %nprocshared=1
 Will use up to    1 processors via shared memory.
 %lindaworkers=:1
 SetLPE:  input flags=""
 SetLPE:    new flags=" -nodelist "PHYS-7QD9NF3""
 Will use up to    1 processors via Linda.
 %chk=C:\Users\phillii2\OneDrive - Western Washington University\Desktop\C-Azoben
 zene MTS ESP recompute\C-Azobenzene_MTS_input.chk
 ----------------------------------------------
 # opt b3lyp/6-31g geom=connectivity pop=chelpg
 ----------------------------------------------
 1/14=-1,18=20,19=15,26=3,38=1,57=2/1,3;
 2/9=110,12=2,17=6,18=5,40=1/2;
 3/5=1,6=6,11=2,16=1,25=1,30=1,71=1,74=-5/1,2,3;
 4//1;
 5/5=2,38=5/2;
 6/7=2,8=2,9=2,10=2,15=8,20=3,28=1/1,2;
 7//1,2,3,16;
 1/14=-1,18=20,19=15/3(2);
 2/9=110/2;
 99//99;
 2/9=110/2;
 3/5=1,6=6,11=2,16=1,25=1,30=1,71=1,74=-5/1,2,3;
 4/5=5,16=3/1;
 5/5=2,38=5/2;
 7//1,2,3,16;
 1/14=-1,18=20,19=15/3(-5);
 2/9=110/2;
 6/7=2,8=2,9=2,10=2,15=8,19=2,20=3,28=1/1,2;
 99/9=1/99;
 ------
 ChelpG
 ------
 Charge =  0 Multiplicity = 1
 Symbolic Z-Matrix:
 N                    -2.10816   1.04867   0.40855 
 N                    -1.56341   2.1458    0.23589 
 C                    -2.19042   3.40099   0.0461 
 C                    -3.23546   3.84367   0.88344 
 C                    -3.81889   5.10543   0.67824 
 C                    -3.34211   5.94642  -0.3438 
 C                    -2.26175   5.52915  -1.14272 
 C                    -1.67973   4.26611  -0.93902 
 C                    -3.49494   0.76447   0.40265 
 C                    -4.01483  -0.07801   1.40241 
 C                    -5.38531  -0.38917   1.4234 
 C                    -6.23898   0.11191   0.42347 
 C                    -5.71279   0.91599  -0.60405 
 C                    -4.34257   1.22655  -0.62538 
 C                    -3.95833   7.3144   -0.5516 
 S                    -3.09663   8.52243   0.48703 
 S                    -4.08357   10.2709   0.13443 
 O                    -3.10178   11.46054   0.47678 
 O                    -4.38581   10.37557  -1.41291 
 C                    -5.62569   10.52441   1.04787 
 C                    -7.72134  -0.1967    0.46305 
 S                    -8.57536   1.10515   1.38852 
 S                    -10.52564   0.51201   1.39183 
 O                    -11.42272   1.79381   1.61227 
 O                    -10.88641  -0.04119  -0.04357 
 C                    -10.98934  -0.7269    2.62748 
 H                    -3.58927   3.22717   1.69716 
 H                    -4.62392   5.43283   1.32003 
 H                    -1.871     6.18013  -1.91128 
 H                    -0.85102   3.95561  -1.5594 
 H                    -3.36895  -0.46581   2.17732 
 H                    -5.78032  -1.00967   2.21466 
 H                    -6.35911   1.2958   -1.38196 
 H                    -3.94973   1.81766  -1.44007 
 H                    -3.87122   7.6073   -1.5983 
 H                    -5.01408   7.29343  -0.27926 
 H                    -5.42213   10.50015   2.11842 
 H                    -6.05279   11.49118   0.78119 
 H                    -6.33167   9.73336   0.79495 
 H                    -8.11913  -0.24242  -0.55116 
 H                    -7.89189  -1.15681   0.9512 
 H                    -12.05114  -0.95515   2.53441 
 H                    -10.78758  -0.33795   3.62553 
 H                    -10.40745  -1.63463   2.46754 
 

 GradGradGradGradGradGradGradGradGradGradGradGradGradGradGradGradGradGrad
 Berny optimization.
 Initialization pass.
                           ----------------------------
                           !    Initial Parameters    !
                           ! (Angstroms and Degrees)  !
 --------------------------                            --------------------------
 ! Name  Definition              Value          Derivative Info.                !
 --------------------------------------------------------------------------------
 ! R1    R(1,2)                  1.237          estimate D2E/DX2                !
 ! R2    R(1,9)                  1.4156         estimate D2E/DX2                !
 ! R3    R(2,3)                  1.4159         estimate D2E/DX2                !
 ! R4    R(3,4)                  1.4104         estimate D2E/DX2                !
 ! R5    R(3,8)                  1.407          estimate D2E/DX2                !
 ! R6    R(4,5)                  1.4052         estimate D2E/DX2                !
 ! R7    R(4,27)                 1.0805         estimate D2E/DX2                !
 ! R8    R(5,6)                  1.4068         estimate D2E/DX2                !
 ! R9    R(5,28)                 1.0803         estimate D2E/DX2                !
 ! R10   R(6,7)                  1.407          estimate D2E/DX2                !
 ! R11   R(6,15)                 1.5147         estimate D2E/DX2                !
 ! R12   R(7,8)                  1.4055         estimate D2E/DX2                !
 ! R13   R(7,29)                 1.0803         estimate D2E/DX2                !
 ! R14   R(8,30)                 1.0808         estimate D2E/DX2                !
 ! R15   R(9,10)                 1.407          estimate D2E/DX2                !
 ! R16   R(9,14)                 1.4103         estimate D2E/DX2                !
 ! R17   R(10,11)                1.4055         estimate D2E/DX2                !
 ! R18   R(10,31)                1.0808         estimate D2E/DX2                !
 ! R19   R(11,12)                1.407          estimate D2E/DX2                !
 ! R20   R(11,32)                1.0803         estimate D2E/DX2                !
 ! R21   R(12,13)                1.4068         estimate D2E/DX2                !
 ! R22   R(12,21)                1.5147         estimate D2E/DX2                !
 ! R23   R(13,14)                1.4051         estimate D2E/DX2                !
 ! R24   R(13,33)                1.0803         estimate D2E/DX2                !
 ! R25   R(14,34)                1.0805         estimate D2E/DX2                !
 ! R26   R(15,16)                1.8112         estimate D2E/DX2                !
 ! R27   R(15,35)                1.0904         estimate D2E/DX2                !
 ! R28   R(15,36)                1.0905         estimate D2E/DX2                !
 ! R29   R(16,17)                2.0385         estimate D2E/DX2                !
 ! R30   R(17,18)                1.58           estimate D2E/DX2                !
 ! R31   R(17,19)                1.5801         estimate D2E/DX2                !
 ! R32   R(17,20)                1.8102         estimate D2E/DX2                !
 ! R33   R(20,37)                1.09           estimate D2E/DX2                !
 ! R34   R(20,38)                1.09           estimate D2E/DX2                !
 ! R35   R(20,39)                1.09           estimate D2E/DX2                !
 ! R36   R(21,22)                1.8113         estimate D2E/DX2                !
 ! R37   R(21,40)                1.0904         estimate D2E/DX2                !
 ! R38   R(21,41)                1.0905         estimate D2E/DX2                !
 ! R39   R(22,23)                2.0385         estimate D2E/DX2                !
 ! R40   R(23,24)                1.58           estimate D2E/DX2                !
 ! R41   R(23,25)                1.5801         estimate D2E/DX2                !
 ! R42   R(23,26)                1.8102         estimate D2E/DX2                !
 ! R43   R(26,42)                1.09           estimate D2E/DX2                !
 ! R44   R(26,43)                1.09           estimate D2E/DX2                !
 ! R45   R(26,44)                1.09           estimate D2E/DX2                !
 ! A1    A(2,1,9)              127.5079         estimate D2E/DX2                !
 ! A2    A(1,2,3)              127.5859         estimate D2E/DX2                !
 ! A3    A(2,3,4)              121.7893         estimate D2E/DX2                !
 ! A4    A(2,3,8)              118.5682         estimate D2E/DX2                !
 ! A5    A(4,3,8)              119.4473         estimate D2E/DX2                !
 ! A6    A(3,4,5)              120.1846         estimate D2E/DX2                !
 ! A7    A(3,4,27)             120.7085         estimate D2E/DX2                !
 ! A8    A(5,4,27)             119.1016         estimate D2E/DX2                !
 ! A9    A(4,5,6)              120.1422         estimate D2E/DX2                !
 ! A10   A(4,5,28)             119.6541         estimate D2E/DX2                !
 ! A11   A(6,5,28)             120.1956         estimate D2E/DX2                !
 ! A12   A(5,6,7)              119.7007         estimate D2E/DX2                !
 ! A13   A(5,6,15)             120.1113         estimate D2E/DX2                !
 ! A14   A(7,6,15)             120.1547         estimate D2E/DX2                !
 ! A15   A(6,7,8)              120.1441         estimate D2E/DX2                !
 ! A16   A(6,7,29)             120.1974         estimate D2E/DX2                !
 ! A17   A(8,7,29)             119.6572         estimate D2E/DX2                !
 ! A18   A(3,8,7)              120.2451         estimate D2E/DX2                !
 ! A19   A(3,8,30)             120.2363         estimate D2E/DX2                !
 ! A20   A(7,8,30)             119.5048         estimate D2E/DX2                !
 ! A21   A(1,9,10)             118.6351         estimate D2E/DX2                !
 ! A22   A(1,9,14)             121.7397         estimate D2E/DX2                !
 ! A23   A(10,9,14)            119.4781         estimate D2E/DX2                !
 ! A24   A(9,10,11)            120.2298         estimate D2E/DX2                !
 ! A25   A(9,10,31)            120.2336         estimate D2E/DX2                !
 ! A26   A(11,10,31)           119.5097         estimate D2E/DX2                !
 ! A27   A(10,11,12)           120.1417         estimate D2E/DX2                !
 ! A28   A(10,11,32)           119.6442         estimate D2E/DX2                !
 ! A29   A(12,11,32)           120.2129         estimate D2E/DX2                !
 ! A30   A(11,12,13)           119.7144         estimate D2E/DX2                !
 ! A31   A(11,12,21)           120.1756         estimate D2E/DX2                !
 ! A32   A(13,12,21)           120.1046         estimate D2E/DX2                !
 ! A33   A(12,13,14)           120.1413         estimate D2E/DX2                !
 ! A34   A(12,13,33)           120.2051         estimate D2E/DX2                !
 ! A35   A(14,13,33)           119.6534         estimate D2E/DX2                !
 ! A36   A(9,14,13)            120.174          estimate D2E/DX2                !
 ! A37   A(9,14,34)            120.6881         estimate D2E/DX2                !
 ! A38   A(13,14,34)           119.1373         estimate D2E/DX2                !
 ! A39   A(6,15,16)            109.2773         estimate D2E/DX2                !
 ! A40   A(6,15,35)            109.986          estimate D2E/DX2                !
 ! A41   A(6,15,36)            110.013          estimate D2E/DX2                !
 ! A42   A(16,15,35)           109.4684         estimate D2E/DX2                !
 ! A43   A(16,15,36)           109.2811         estimate D2E/DX2                !
 ! A44   A(35,15,36)           108.7985         estimate D2E/DX2                !
 ! A45   A(15,16,17)           104.0368         estimate D2E/DX2                !
 ! A46   A(16,17,18)           107.9079         estimate D2E/DX2                !
 ! A47   A(16,17,19)           108.5915         estimate D2E/DX2                !
 ! A48   A(16,17,20)           116.4417         estimate D2E/DX2                !
 ! A49   A(18,17,19)           106.3306         estimate D2E/DX2                !
 ! A50   A(18,17,20)           108.3357         estimate D2E/DX2                !
 ! A51   A(19,17,20)           108.7798         estimate D2E/DX2                !
 ! A52   A(17,20,37)           109.4751         estimate D2E/DX2                !
 ! A53   A(17,20,38)           109.5455         estimate D2E/DX2                !
 ! A54   A(17,20,39)           109.4537         estimate D2E/DX2                !
 ! A55   A(37,20,38)           109.4631         estimate D2E/DX2                !
 ! A56   A(37,20,39)           109.4325         estimate D2E/DX2                !
 ! A57   A(38,20,39)           109.4575         estimate D2E/DX2                !
 ! A58   A(12,21,22)           109.1693         estimate D2E/DX2                !
 ! A59   A(12,21,40)           109.9544         estimate D2E/DX2                !
 ! A60   A(12,21,41)           110.1296         estimate D2E/DX2                !
 ! A61   A(22,21,40)           109.4745         estimate D2E/DX2                !
 ! A62   A(22,21,41)           109.2899         estimate D2E/DX2                !
 ! A63   A(40,21,41)           108.8073         estimate D2E/DX2                !
 ! A64   A(21,22,23)           104.0519         estimate D2E/DX2                !
 ! A65   A(22,23,24)           107.9014         estimate D2E/DX2                !
 ! A66   A(22,23,25)           108.5931         estimate D2E/DX2                !
 ! A67   A(22,23,26)           116.4445         estimate D2E/DX2                !
 ! A68   A(24,23,25)           106.3286         estimate D2E/DX2                !
 ! A69   A(24,23,26)           108.3347         estimate D2E/DX2                !
 ! A70   A(25,23,26)           108.7844         estimate D2E/DX2                !
 ! A71   A(23,26,42)           109.5454         estimate D2E/DX2                !
 ! A72   A(23,26,43)           109.4746         estimate D2E/DX2                !
 ! A73   A(23,26,44)           109.4537         estimate D2E/DX2                !
 ! A74   A(42,26,43)           109.4634         estimate D2E/DX2                !
 ! A75   A(42,26,44)           109.4575         estimate D2E/DX2                !
 ! A76   A(43,26,44)           109.4326         estimate D2E/DX2                !
 ! D1    D(9,1,2,3)              2.9423         estimate D2E/DX2                !
 ! D2    D(2,1,9,10)          -136.04           estimate D2E/DX2                !
 ! D3    D(2,1,9,14)            48.3937         estimate D2E/DX2                !
 ! D4    D(1,2,3,4)             47.84           estimate D2E/DX2                !
 ! D5    D(1,2,3,8)           -137.2668         estimate D2E/DX2                !
 ! D6    D(2,3,4,5)            178.9356         estimate D2E/DX2                !
 ! D7    D(2,3,4,27)            -0.2194         estimate D2E/DX2                !
 ! D8    D(8,3,4,5)              4.0863         estimate D2E/DX2                !
 ! D9    D(8,3,4,27)          -175.0688         estimate D2E/DX2                !
 ! D10   D(2,3,8,7)           -178.991          estimate D2E/DX2                !
 ! D11   D(2,3,8,30)             2.3658         estimate D2E/DX2                !
 ! D12   D(4,3,8,7)             -3.9755         estimate D2E/DX2                !
 ! D13   D(4,3,8,30)           177.3813         estimate D2E/DX2                !
 ! D14   D(3,4,5,6)             -1.4996         estimate D2E/DX2                !
 ! D15   D(3,4,5,28)           179.536          estimate D2E/DX2                !
 ! D16   D(27,4,5,6)           177.669          estimate D2E/DX2                !
 ! D17   D(27,4,5,28)           -1.2954         estimate D2E/DX2                !
 ! D18   D(4,5,6,7)             -1.2211         estimate D2E/DX2                !
 ! D19   D(4,5,6,15)          -179.1237         estimate D2E/DX2                !
 ! D20   D(28,5,6,7)           177.7376         estimate D2E/DX2                !
 ! D21   D(28,5,6,15)           -0.1649         estimate D2E/DX2                !
 ! D22   D(5,6,7,8)              1.3343         estimate D2E/DX2                !
 ! D23   D(5,6,7,29)          -178.2572         estimate D2E/DX2                !
 ! D24   D(15,6,7,8)           179.2359         estimate D2E/DX2                !
 ! D25   D(15,6,7,29)           -0.3556         estimate D2E/DX2                !
 ! D26   D(5,6,15,16)           88.4362         estimate D2E/DX2                !
 ! D27   D(5,6,15,35)         -151.3709         estimate D2E/DX2                !
 ! D28   D(5,6,15,36)          -31.5431         estimate D2E/DX2                !
 ! D29   D(7,6,15,16)          -89.4568         estimate D2E/DX2                !
 ! D30   D(7,6,15,35)           30.7362         estimate D2E/DX2                !
 ! D31   D(7,6,15,36)          150.5639         estimate D2E/DX2                !
 ! D32   D(6,7,8,3)              1.279          estimate D2E/DX2                !
 ! D33   D(6,7,8,30)           179.9321         estimate D2E/DX2                !
 ! D34   D(29,7,8,3)          -179.1273         estimate D2E/DX2                !
 ! D35   D(29,7,8,30)           -0.4742         estimate D2E/DX2                !
 ! D36   D(1,9,10,11)         -179.6027         estimate D2E/DX2                !
 ! D37   D(1,9,10,31)            2.2926         estimate D2E/DX2                !
 ! D38   D(14,9,10,11)          -3.9338         estimate D2E/DX2                !
 ! D39   D(14,9,10,31)         177.9615         estimate D2E/DX2                !
 ! D40   D(1,9,14,13)          179.491          estimate D2E/DX2                !
 ! D41   D(1,9,14,34)           -0.2039         estimate D2E/DX2                !
 ! D42   D(10,9,14,13)           3.9612         estimate D2E/DX2                !
 ! D43   D(10,9,14,34)        -175.7338         estimate D2E/DX2                !
 ! D44   D(9,10,11,12)           1.6875         estimate D2E/DX2                !
 ! D45   D(9,10,11,32)        -177.9253         estimate D2E/DX2                !
 ! D46   D(31,10,11,12)        179.8059         estimate D2E/DX2                !
 ! D47   D(31,10,11,32)          0.1931         estimate D2E/DX2                !
 ! D48   D(10,11,12,13)          0.5602         estimate D2E/DX2                !
 ! D49   D(10,11,12,21)       -178.596          estimate D2E/DX2                !
 ! D50   D(32,11,12,13)       -179.8292         estimate D2E/DX2                !
 ! D51   D(32,11,12,21)          1.0146         estimate D2E/DX2                !
 ! D52   D(11,12,13,14)         -0.5306         estimate D2E/DX2                !
 ! D53   D(11,12,13,33)        179.3148         estimate D2E/DX2                !
 ! D54   D(21,12,13,14)        178.6261         estimate D2E/DX2                !
 ! D55   D(21,12,13,33)         -1.5285         estimate D2E/DX2                !
 ! D56   D(11,12,21,22)         90.9733         estimate D2E/DX2                !
 ! D57   D(11,12,21,40)       -148.913          estimate D2E/DX2                !
 ! D58   D(11,12,21,41)        -29.021          estimate D2E/DX2                !
 ! D59   D(13,12,21,22)        -88.1795         estimate D2E/DX2                !
 ! D60   D(13,12,21,40)         31.9342         estimate D2E/DX2                !
 ! D61   D(13,12,21,41)        151.8262         estimate D2E/DX2                !
 ! D62   D(12,13,14,9)          -1.741          estimate D2E/DX2                !
 ! D63   D(12,13,14,34)        177.9587         estimate D2E/DX2                !
 ! D64   D(33,13,14,9)         178.4128         estimate D2E/DX2                !
 ! D65   D(33,13,14,34)         -1.8876         estimate D2E/DX2                !
 ! D66   D(6,15,16,17)        -178.1436         estimate D2E/DX2                !
 ! D67   D(35,15,16,17)         61.3465         estimate D2E/DX2                !
 ! D68   D(36,15,16,17)        -57.7155         estimate D2E/DX2                !
 ! D69   D(15,16,17,18)       -156.6418         estimate D2E/DX2                !
 ! D70   D(15,16,17,19)        -41.778          estimate D2E/DX2                !
 ! D71   D(15,16,17,20)         81.3576         estimate D2E/DX2                !
 ! D72   D(16,17,20,37)         59.5471         estimate D2E/DX2                !
 ! D73   D(16,17,20,38)        179.585          estimate D2E/DX2                !
 ! D74   D(16,17,20,39)        -60.3971         estimate D2E/DX2                !
 ! D75   D(18,17,20,37)        -62.2286         estimate D2E/DX2                !
 ! D76   D(18,17,20,38)         57.8093         estimate D2E/DX2                !
 ! D77   D(18,17,20,39)        177.8272         estimate D2E/DX2                !
 ! D78   D(19,17,20,37)       -177.4151         estimate D2E/DX2                !
 ! D79   D(19,17,20,38)        -57.3772         estimate D2E/DX2                !
 ! D80   D(19,17,20,39)         62.6407         estimate D2E/DX2                !
 ! D81   D(12,21,22,23)       -178.3962         estimate D2E/DX2                !
 ! D82   D(40,21,22,23)         61.1954         estimate D2E/DX2                !
 ! D83   D(41,21,22,23)        -57.8861         estimate D2E/DX2                !
 ! D84   D(21,22,23,24)       -156.644          estimate D2E/DX2                !
 ! D85   D(21,22,23,25)        -41.7853         estimate D2E/DX2                !
 ! D86   D(21,22,23,26)         81.3598         estimate D2E/DX2                !
 ! D87   D(22,23,26,42)        179.5799         estimate D2E/DX2                !
 ! D88   D(22,23,26,43)         59.5419         estimate D2E/DX2                !
 ! D89   D(22,23,26,44)        -60.4022         estimate D2E/DX2                !
 ! D90   D(24,23,26,42)         57.8117         estimate D2E/DX2                !
 ! D91   D(24,23,26,43)        -62.2263         estimate D2E/DX2                !
 ! D92   D(24,23,26,44)        177.8296         estimate D2E/DX2                !
 ! D93   D(25,23,26,42)        -57.3743         estimate D2E/DX2                !
 ! D94   D(25,23,26,43)       -177.4123         estimate D2E/DX2                !
 ! D95   D(25,23,26,44)         62.6436         estimate D2E/DX2                !
 --------------------------------------------------------------------------------
 Trust Radius=3.00D-01 FncErr=1.00D-07 GrdErr=1.00D-06
 Number of steps in this run=    226 maximum allowed number of steps=    264.
 GradGradGradGradGradGradGradGradGradGradGradGradGradGradGradGradGradGrad

                          Input orientation:                          
 ---------------------------------------------------------------------
 Center     Atomic      Atomic             Coordinates (Angstroms)
 Number     Number       Type             X           Y           Z
 ---------------------------------------------------------------------
      1          7           0       -2.108156    1.048672    0.408547
      2          7           0       -1.563410    2.145796    0.235894
      3          6           0       -2.190424    3.400989    0.046095
      4          6           0       -3.235457    3.843671    0.883435
      5          6           0       -3.818892    5.105431    0.678244
      6          6           0       -3.342111    5.946419   -0.343801
      7          6           0       -2.261751    5.529153   -1.142721
      8          6           0       -1.679732    4.266107   -0.939021
      9          6           0       -3.494944    0.764470    0.402646
     10          6           0       -4.014825   -0.078013    1.402405
     11          6           0       -5.385308   -0.389171    1.423401
     12          6           0       -6.238977    0.111912    0.423470
     13          6           0       -5.712792    0.915987   -0.604046
     14          6           0       -4.342569    1.226546   -0.625376
     15          6           0       -3.958332    7.314399   -0.551601
     16         16           0       -3.096632    8.522426    0.487030
     17         16           0       -4.083571   10.270900    0.134427
     18          8           0       -3.101777   11.460540    0.476783
     19          8           0       -4.385810   10.375570   -1.412914
     20          6           0       -5.625688   10.524410    1.047871
     21          6           0       -7.721338   -0.196697    0.463050
     22         16           0       -8.575359    1.105146    1.388520
     23         16           0      -10.525640    0.512009    1.391832
     24          8           0      -11.422720    1.793812    1.612271
     25          8           0      -10.886410   -0.041188   -0.043571
     26          6           0      -10.989340   -0.726905    2.627482
     27          1           0       -3.589273    3.227170    1.697163
     28          1           0       -4.623923    5.432827    1.320027
     29          1           0       -1.870999    6.180135   -1.911281
     30          1           0       -0.851020    3.955613   -1.559398
     31          1           0       -3.368950   -0.465809    2.177318
     32          1           0       -5.780317   -1.009672    2.214657
     33          1           0       -6.359106    1.295804   -1.381959
     34          1           0       -3.949725    1.817664   -1.440066
     35          1           0       -3.871216    7.607299   -1.598295
     36          1           0       -5.014080    7.293428   -0.279262
     37          1           0       -5.422130   10.500150    2.118419
     38          1           0       -6.052792   11.491180    0.781192
     39          1           0       -6.331672    9.733362    0.794951
     40          1           0       -8.119126   -0.242424   -0.551159
     41          1           0       -7.891888   -1.156806    0.951197
     42          1           0      -12.051140   -0.955148    2.534413
     43          1           0      -10.787580   -0.337953    3.625533
     44          1           0      -10.407450   -1.634628    2.467544
 ---------------------------------------------------------------------
                    Distance matrix (angstroms):
                    1          2          3          4          5
     1  N    0.000000
     2  N    1.237028   0.000000
     3  C    2.381498   1.415867   0.000000
     4  C    3.050958   2.469378   1.410390   0.000000
     5  C    4.410969   3.747307   2.440624   1.405183   0.000000
     6  C    5.106525   4.236102   2.820925   2.437013   1.406826
     7  C    4.743915   3.719592   2.438740   2.809673   2.433134
     8  C    3.514452   2.426865   1.407014   2.433121   2.809985
     9  C    1.415622   2.380481   2.963129   3.127294   4.361747
    10  C    2.427460   3.509346   4.155896   4.031917   5.237451
    11  C    3.719818   4.737419   5.144859   4.778114   5.761907
    12  C    4.235732   5.102234   5.229839   4.812351   5.554903
    13  C    3.746512   4.408549   4.359472   4.113529   4.773109
    14  C    2.468448   3.051317   3.132220   3.217383   4.125459
    15  C    6.603360   5.750674   4.335610   3.824635   2.532094
    16  S    7.539247   6.563174   5.219651   4.697569   3.497725
    17  S    9.435406   8.507574   7.126534   6.526070   5.200756
    18  O   10.459395   9.443996   8.122341   7.628888   6.398613
    19  O    9.772229   8.855151   7.456085   7.018706   5.698132
    20  C   10.127753   9.346795   7.971682   7.097360   5.724200
    21  C    5.749933   6.592340   6.611218   6.051812   6.586954
    22  S    6.541273   7.181847   6.916675   6.022390   6.255458
    23  S    8.491696   9.182974   8.923735   8.031513   8.160221
    24  O    9.421533   9.961139   9.501116   8.471387   8.346102
    25  O    8.857198   9.580153   9.352903   8.630675   8.772600
    26  C    9.324794  10.140032  10.056042   9.168127   9.446216
    27  H    2.932592   2.721911   2.170948   1.080468   2.149136
    28  H    5.136214   4.620244   3.416604   2.154963   1.080346
    29  H    5.636467   4.580487   3.414236   3.889891   3.413930
    30  H    3.728740   2.646887   2.163150   3.415480   3.890680
    31  H    2.647981   3.721502   4.569809   4.501507   5.786915
    32  H    4.580784   5.626259   6.086372   5.639450   6.603199
    33  H    4.619260   5.132118   4.883549   4.623940   5.020994
    34  H    2.720311   2.934453   2.794769   3.164418   3.913281
    35  H    7.081764   6.206306   4.818934   4.552809   3.383003
    36  H    6.922027   6.218571   4.819748   4.051689   2.670697
    37  H   10.160538   9.393021   8.070721   7.114453   5.809257
    38  H   11.168930  10.382105   8.994968   8.150597   6.765996
    39  H    9.664949   8.978865   7.603267   6.654535   5.267393
    40  H    6.222518   7.021429   6.984317   6.527209   6.971585
    41  H    6.213707   7.174153   7.355229   6.833133   7.475253
    42  H   10.363278  11.175488  11.063515  10.172053  10.389701
    43  H    9.359708  10.136270  10.035096   9.057574   9.320920
    44  H    8.962023   9.873647   9.936819   9.162895   9.593700
                    6          7          8          9         10
     6  C    0.000000
     7  C    1.406969   0.000000
     8  C    2.437466   1.405534   0.000000
     9  C    5.237665   5.158597   4.166116   0.000000
    10  C    6.308373   6.402441   5.459516   1.406973   0.000000
    11  C    6.887479   7.167158   6.401870   2.438505   1.405519
    12  C    6.559116   6.900564   6.316679   2.820635   2.437465
    13  C    5.567145   5.786290   5.253674   2.440335   2.810156
    14  C    4.832950   4.807273   4.053147   1.410253   2.433349
    15  C    1.514688   2.532768   3.825467   6.635276   7.646508
    16  S    2.717785   3.508960   4.707173   7.768632   8.697617
    17  S    4.413570   5.237776   6.556544   9.528412  10.426529
    18  O    5.580022   6.205625   7.469041  10.703550  11.611574
    19  O    4.674365   5.298338   6.698729   9.821565  10.832408
    20  C    5.301837   6.408382   7.660592  10.010635  10.729956
    21  C    7.587260   8.072853   7.640905   4.334732   3.825534
    22  S    7.336603   8.114226   7.934658   5.186388   4.711532
    23  S    9.173239   9.994376   9.888185   7.104429   6.537503
    24  O    9.293364  10.269669  10.370494   8.085318   7.643604
    25  O    9.636287  10.325773  10.203800   7.448622   7.022171
    26  C   10.575532  11.380839  11.149839   7.958647   7.110959
    27  H    3.408950   3.889265   3.416899   2.783804   3.345477
    28  H    2.162208   3.413834   3.890089   4.889758   5.545011
    29  H    2.162357   1.080347   2.155314   6.109082   7.398711
    30  H    3.412700   2.154022   1.080758   4.585122   5.920480
    31  H    6.890096   6.941766   5.912364   2.163081   1.080754
    32  H    7.802420   8.149143   7.388797   3.413780   2.155157
    33  H    5.639880   5.896338   5.560165   3.416219   3.890464
    34  H    4.314813   4.088132   3.376209   2.170629   3.417232
    35  H    2.147610   2.667699   4.049791   7.139303   8.251597
    36  H    2.148041   3.381352   4.551684   6.737957   7.626576
    37  H    5.579021   6.733041   7.887761  10.071811  10.695360
    38  H    6.273578   7.322513   8.618844  11.033956  11.763735
    39  H    4.957335   6.163944   7.384990   9.414985  10.099498
    40  H    7.820783   8.244385   7.870393   4.827695   4.548487
    41  H    8.534243   8.988047   8.460011   4.829630   4.049568
    42  H   11.478803  12.304455  12.119915   8.983875   8.162914
    43  H   10.520644  11.395128  11.179688   8.048905   7.133027
    44  H   10.737549  11.432681  11.072327   7.602777   6.665075
                   11         12         13         14         15
    11  C    0.000000
    12  C    1.407017   0.000000
    13  C    2.433357   1.406839   0.000000
    14  C    2.809864   2.436976   1.405138   0.000000
    15  C    8.079721   7.617606   6.634799   6.100413   0.000000
    16  S    9.248318   8.978592   8.117429   7.484629   1.811246
    17  S   10.816335  10.389146   9.524395   9.079908   3.037634
    18  O   12.104803  11.774388  10.916647  10.367688   4.356804
    19  O   11.176911  10.590052   9.586389   9.182958   3.208639
    20  C   10.922686  10.449216   9.749780   9.533962   3.955067
    21  C    2.533053   1.514662   2.531998   3.824444   8.462050
    22  S    3.522872   2.715974   3.492906   4.689033   7.977207
    23  S    5.218825   4.412854   5.225919   6.542940   9.652926
    24  O    6.422728   5.577923   6.187561   7.446972   9.532907
    25  O    5.703965   4.673350   5.291185   6.690852  10.117363
    26  C    5.741868   5.303511   6.401861   7.653537  11.144694
    27  H    4.047050   4.283463   3.891846   3.156603   4.679592
    28  H    5.872483   5.632437   5.028870   4.642904   2.736113
    29  H    8.162491   7.832855   6.646766   5.683331   2.737196
    30  H    6.952267   6.909116   5.812818   4.528920   4.685348
    31  H    2.154057   3.412741   3.890879   3.415713   8.265954
    32  H    1.080342   2.162561   3.414353   3.890190   8.958905
    33  H    3.414304   2.162315   1.080339   2.154910   6.532740
    34  H    3.889790   3.409257   2.149501   1.080493   5.568082
    35  H    8.681397   8.116320   7.010962   6.471689   1.090389
    36  H    7.877766   7.319042   6.423818   6.113737   1.090510
    37  H   10.911541  10.557252   9.967572   9.731063   4.406895
    38  H   11.916405  11.386412  10.670951  10.500762   4.858868
    39  H   10.186080   9.629065   8.949095   8.850976   3.646550
    40  H    3.375527   2.147188   2.671171   4.052871   8.626574
    41  H    2.663679   2.149478   3.385810   4.556711   9.460052
    42  H    6.781445   6.275025   7.316128   8.611976  11.975075
    43  H    5.834085   5.580804   6.724223   7.877567  11.074546
    44  H    5.278571   4.960323   6.162801   7.384799  11.436409
                   16         17         18         19         20
    16  S    0.000000
    17  S    2.038514   0.000000
    18  O    2.938136   1.579991   0.000000
    19  O    2.950578   1.580053   2.529200   0.000000
    20  C    3.273928   1.810186   2.751837   2.759513   0.000000
    21  C    9.869731  11.086566  12.539207  11.243568  10.939648
    22  S    9.265267  10.283966  11.748428  10.551830   9.876190
    23  S   10.962463  11.760836  13.259766  11.952152  11.152399
    24  O   10.764021  11.309649  12.805196  11.502887  10.495116
    25  O   11.588687  12.355139  13.898239  12.354827  11.853198
    26  C   12.346112  13.223338  14.675591  13.535005  12.564076
    27  H    5.454068   7.231916   8.337587   7.836241   7.603833
    28  H    3.545719   5.010447   6.273860   5.652997   5.196327
    29  H    3.569370   5.080822   5.924554   4.916739   6.459644
    30  H    5.485109   7.293921   8.095423   7.330215   8.529033
    31  H    9.149841  10.952671  12.049937  11.465568  11.276233
    32  H   10.052251  11.595586  12.872489  12.030281  11.593979
    33  H    8.146221   9.382422  10.834527   9.291771   9.571267
    34  H    7.028179   8.599659   9.868049   8.569053   9.209023
    35  H    2.405414   3.184681   4.443585   2.821790   4.311601
    36  H    2.402966   3.146796   4.646862   3.343574   3.546067
    37  H    3.461324   2.404271   3.000226   3.682362   1.089999
    38  H    4.199871   2.405248   2.966832   2.972796   1.090037
    39  H    3.467948   2.403996   3.676492   3.012221   1.090018
    40  H   10.155092  11.282097  12.774577  11.288139  11.166864
    41  H   10.811913  12.073229  13.504357  12.283212  11.899404
    42  H   13.198462  13.973770  15.442611  14.238112  13.239203
    43  H   12.145254  13.026102  14.428813  13.459130  12.299610
    44  H   12.670290  13.681245  15.126778  13.984383  13.142409
                   21         22         23         24         25
    21  C    0.000000
    22  S    1.811255   0.000000
    23  S    3.037929   2.038484   0.000000
    24  O    4.356956   2.937991   1.579989   0.000000
    25  O    3.209132   2.950580   1.580052   2.529163   0.000000
    26  C    3.955468   3.273949   1.810181   2.751815   2.759588
    27  H    5.506348   5.427642   7.455100   7.963957   8.182941
    28  H    6.482278   5.860662   7.684391   7.716960   8.428700
    29  H    8.973734   9.032865  10.860065  11.085604  11.111743
    30  H    8.278481   8.745330  10.684870  11.246942  10.907851
    31  H    4.685554   5.495161   7.265764   8.383816   7.850150
    32  H    2.737995   3.601002   5.050806   6.329226   5.666546
    33  H    2.736292   3.552982   5.066385   5.903695   4.906660
    34  H    4.680231   5.468553   7.277846   8.072359   7.315950
    35  H    8.942871   8.563178  10.176707  10.056320  10.494259
    36  H    7.998890   7.332055   8.897049   8.654152   9.398745
    37  H   11.065674   9.936886  11.239960  10.586009  12.068652
    38  H   11.810662  10.705227  11.871034  11.116014  12.531545
    39  H   10.032318   8.934907  10.147856   9.466955  10.816219
    40  H    1.090388   2.405504   3.183660   4.443019   2.820639
    41  H    1.090497   2.403084   3.148929   4.648649   3.346838
    42  H    4.859319   4.199873   2.405242   2.966823   2.972864
    43  H    4.407164   3.461313   2.404261   3.000175   3.682412
    44  H    3.647032   3.468027   2.403992   3.676475   3.012333
                   26         27         28         29         30
    26  C    0.000000
    27  H    8.441634   0.000000
    28  H    8.953785   2.465290   0.000000
    29  H   12.306572   4.969239   4.310268   0.000000
    30  H   11.926503   4.316694   4.970719   2.472383   0.000000
    31  H    7.638139   3.730574   6.091289   7.945380   6.312843
    32  H    5.233001   4.797844   6.606315   9.165122   7.949561
    33  H    6.450274   4.569808   5.237036   6.654320   6.119239
    34  H    8.519152   3.458155   4.598050   4.855337   3.766569
    35  H   11.746652   5.488631   3.716383   2.477019   4.738978
    36  H   10.415307   4.740336   2.484307   3.712394   5.487334
    37  H   12.541919   7.512194   5.191563   6.892862   8.789332
    38  H   13.306385   8.671897   6.247852   7.276263   9.451009
    39  H   11.596086   7.117954   4.656900   6.312425   8.304390
    40  H    4.310059   6.132912   6.922879   9.063018   8.453723
    41  H    3.548092   6.187747   7.364706   9.913404   9.056144
    42  H    1.090035   9.476073   9.871398  13.202717  12.896416
    43  H    1.089998   8.261013   8.752596  12.355048  12.002227
    44  H    1.090017   8.409406   9.204070  12.373990  11.781019
                   31         32         33         34         35
    31  H    0.000000
    32  H    2.472220   0.000000
    33  H    4.971193   4.311132   0.000000
    34  H    4.317061   4.970100   2.465934   0.000000
    35  H    8.926511   9.614336   6.787589   5.792329   0.000000
    36  H    8.303432   8.703345   6.244720   5.697746   1.773274
    37  H   11.156669  11.515796   9.891944   9.498229   4.958617
    38  H   12.333765  12.585721  10.426828  10.145629   5.050323
    39  H   10.710357  10.850453   8.713901   8.563133   4.037525
    40  H    5.482578   3.702490   2.480735   4.734768   8.986623
    41  H    4.736858   2.465099   3.715956   5.486917   9.973728
    42  H    8.703298   6.279207   7.266636   9.440227  12.542166
    43  H    7.559745   5.245423   6.881535   8.778567  11.758040
    44  H    7.140788   4.675990   6.308343   8.299997  12.027744
                   36         37         38         39         40
    36  H    0.000000
    37  H    4.024729   0.000000
    38  H    4.452483   1.779902   0.000000
    39  H    2.973762   1.779550   1.779856   0.000000
    40  H    8.155017  11.393127  11.988426  10.223664   0.000000
    41  H    9.011230  11.972750  12.782125  11.002475   1.773359
    42  H   11.201606  13.241626  13.927133  12.246726   5.048709
    43  H   10.335314  12.187039  13.055148  11.370959   4.957270
    44  H   10.786267  13.123572  13.931750  12.191831   4.035744
                   41         42         43         44
    41  H    0.000000
    42  H    4.454954   0.000000
    43  H    4.025870   1.779903   0.000000
    44  H    2.975849   1.779854   1.779551   0.000000
 Stoichiometry    C16H18N2O4S4
 Framework group  C1[X(C16H18N2O4S4)]
 Deg. of freedom   126
 Full point group                 C1      NOp   1
 Largest Abelian subgroup         C1      NOp   1
 Largest concise Abelian subgroup C1      NOp   1
                         Standard orientation:                         
 ---------------------------------------------------------------------
 Center     Atomic      Atomic             Coordinates (Angstroms)
 Number     Number       Type             X           Y           Z
 ---------------------------------------------------------------------
      1          7           0       -0.734604    4.395369   -0.427722
      2          7           0        0.498316    4.305367   -0.382484
      3          6           0        1.270802    3.147049   -0.125102
      4          6           0        1.020766    1.925598   -0.784448
      5          6           0        1.822809    0.802618   -0.519530
      6          6           0        2.898989    0.899796    0.381331
      7          6           0        3.184348    2.132770    0.996072
      8          6           0        2.380656    3.255420    0.732901
      9          6           0       -1.683102    3.374812   -0.177122
     10          6           0       -2.779996    3.244979   -1.048638
     11          6           0       -3.746225    2.248711   -0.826526
     12          6           0       -3.640515    1.398220    0.289354
     13          6           0       -2.570018    1.557018    1.188250
     14          6           0       -1.604394    2.553423    0.966529
     15          6           0        3.775211   -0.305866    0.651322
     16         16           0        5.126853   -0.344640   -0.553738
     17         16           0        6.155074   -2.042369   -0.088963
     18          8           0        7.631222   -1.879319   -0.628196
     19          8           0        6.265827   -2.149665    1.483548
     20          6           0        5.481726   -3.594339   -0.732985
     21          6           0       -4.663698    0.303848    0.512170
     22         16           0       -4.093629   -1.215928   -0.291537
     23         16           0       -5.593839   -2.551834    0.055080
     24          8           0       -4.982833   -4.005367   -0.046302
     25          8           0       -6.086690   -2.380158    1.546451
     26          6           0       -7.026961   -2.458442   -1.046826
     27          1           0        0.222344    1.842305   -1.507633
     28          1           0        1.618950   -0.130790   -1.023851
     29          1           0        4.025879    2.223335    1.667468
     30          1           0        2.608572    4.197191    1.211609
     31          1           0       -2.869463    3.890575   -1.910747
     32          1           0       -4.566503    2.135700   -1.520436
     33          1           0       -2.487238    0.915603    2.053621
     34          1           0       -0.807620    2.682987    1.684743
     35          1           0        4.188145   -0.248349    1.658856
     36          1           0        3.188368   -1.220831    0.563764
     37          1           0        5.443344   -3.549891   -1.821400
     38          1           0        6.118831   -4.423669   -0.425592
     39          1           0        4.475948   -3.744273   -0.340468
     40          1           0       -4.790386    0.124729    1.580258
     41          1           0       -5.624839    0.596766    0.088390
     42          1           0       -7.752215   -3.222719   -0.767427
     43          1           0       -6.705621   -2.621451   -2.075545
     44          1           0       -7.486427   -1.473628   -0.962152
 ---------------------------------------------------------------------
 Rotational constants (GHZ):      0.1797209      0.0555516      0.0442370
 Standard basis: 6-31G (6D, 7F)
 There are   286 symmetry adapted basis functions of A   symmetry.
 Integral buffers will be    262144 words long.
 Raffenetti 2 integral format.
 Two-electron integral symmetry is turned on.
   286 basis functions,   740 primitive gaussians,   286 cartesian basis functions
   112 alpha electrons      112 beta electrons
       nuclear repulsion energy      2762.0063334989 Hartrees.



 Warning!  S  atom   17 may be hypervalent but has no d functions.
 Warning!  S  atom   23 may be hypervalent but has no d functions.



 NAtoms=   44 NActive=   44 NUniq=   44 SFac= 1.00D+00 NAtFMM=   60 NAOKFM=F Big=F
 One-electron integrals computed using PRISM.
 NBasis=   286 RedAO= T  NBF=   286
 NBsUse=   286 1.00D-06 NBFU=   286
 Harris functional with IExCor=  402 diagonalized for initial guess.
 ExpMin= 1.17D-01 ExpMax= 2.19D+04 ExpMxC= 3.30D+03 IAcc=1 IRadAn=         1 AccDes= 0.00D+00
 HarFok:  IExCor=  402 AccDes= 0.00D+00 IRadAn=         1 IDoV= 1
 ScaDFX=  1.000000  1.000000  1.000000  1.000000
 FoFCou: FMM=F IPFlag=           0 FMFlag=      100000 FMFlg1=           0
         NFxFlg=           0 DoJE=T BraDBF=F KetDBF=T FulRan=T
         Omega=  0.000000  0.000000  1.000000  0.000000  0.000000 ICntrl=     500 IOpCl=  0
         NMat0=    1 NMatS0=    1 NMatT0=    0 NMatD0=    1 NMtDS0=    0 NMtDT0=    0
         I1Cent=           4 NGrid=           0.
 Petite list used in FoFCou.
 Initial guess orbital symmetries:
       Occupied  (A) (A) (A) (A) (A) (A) (A) (A) (A) (A) (A) (A)
                 (A) (A) (A) (A) (A) (A) (A) (A) (A) (A) (A) (A)
                 (A) (A) (A) (A) (A) (A) (A) (A) (A) (A) (A) (A)
                 (A) (A) (A) (A) (A) (A) (A) (A) (A) (A) (A) (A)
                 (A) (A) (A) (A) (A) (A) (A) (A) (A) (A) (A) (A)
                 (A) (A) (A) (A) (A) (A) (A) (A) (A) (A) (A) (A)
                 (A) (A) (A) (A) (A) (A) (A) (A) (A) (A) (A) (A)
                 (A) (A) (A) (A) (A) (A) (A) (A) (A) (A) (A) (A)
                 (A) (A) (A) (A) (A) (A) (A) (A) (A) (A) (A) (A)
                 (A) (A) (A) (A)
       Virtual   (A) (A) (A) (A) (A) (A) (A) (A) (A) (A) (A) (A)
                 (A) (A) (A) (A) (A) (A) (A) (A) (A) (A) (A) (A)
                 (A) (A) (A) (A) (A) (A) (A) (A) (A) (A) (A) (A)
                 (A) (A) (A) (A) (A) (A) (A) (A) (A) (A) (A) (A)
                 (A) (A) (A) (A) (A) (A) (A) (A) (A) (A) (A) (A)
                 (A) (A) (A) (A) (A) (A) (A) (A) (A) (A) (A) (A)
                 (A) (A) (A) (A) (A) (A) (A) (A) (A) (A) (A) (A)
                 (A) (A) (A) (A) (A) (A) (A) (A) (A) (A) (A) (A)
                 (A) (A) (A) (A) (A) (A) (A) (A) (A) (A) (A) (A)
                 (A) (A) (A) (A) (A) (A) (A) (A) (A) (A) (A) (A)
                 (A) (A) (A) (A) (A) (A) (A) (A) (A) (A) (A) (A)
                 (A) (A) (A) (A) (A) (A) (A) (A) (A) (A) (A) (A)
                 (A) (A) (A) (A) (A) (A) (A) (A) (A) (A) (A) (A)
                 (A) (A) (A) (A) (A) (A) (A) (A) (A) (A) (A) (A)
                 (A) (A) (A) (A) (A) (A)
 The electronic state of the initial guess is 1-A.
 Requested convergence on RMS density matrix=1.00D-08 within 128 cycles.
 Requested convergence on MAX density matrix=1.00D-06.
 Requested convergence on             energy=1.00D-06.
 No special actions if energy rises.
 Integral accuracy reduced to 1.0D-05 until final iterations.
 EnCoef did     2 forward-backward iterations
 EnCoef did     2 forward-backward iterations
 EnCoef did     5 forward-backward iterations
 Initial convergence to 1.0D-05 achieved.  Increase integral accuracy.
 SCF Done:  E(RB3LYP) =  -2622.78667409     A.U. after   20 cycles
             Convg  =    0.4942D-08             -V/T =  2.0026

 **********************************************************************

            Population analysis using the SCF density.

 **********************************************************************

 Orbital symmetries:
       Occupied  (A) (A) (A) (A) (A) (A) (A) (A) (A) (A) (A) (A)
                 (A) (A) (A) (A) (A) (A) (A) (A) (A) (A) (A) (A)
                 (A) (A) (A) (A) (A) (A) (A) (A) (A) (A) (A) (A)
                 (A) (A) (A) (A) (A) (A) (A) (A) (A) (A) (A) (A)
                 (A) (A) (A) (A) (A) (A) (A) (A) (A) (A) (A) (A)
                 (A) (A) (A) (A) (A) (A) (A) (A) (A) (A) (A) (A)
                 (A) (A) (A) (A) (A) (A) (A) (A) (A) (A) (A) (A)
                 (A) (A) (A) (A) (A) (A) (A) (A) (A) (A) (A) (A)
                 (A) (A) (A) (A) (A) (A) (A) (A) (A) (A) (A) (A)
                 (A) (A) (A) (A)
       Virtual   (A) (A) (A) (A) (A) (A) (A) (A) (A) (A) (A) (A)
                 (A) (A) (A) (A) (A) (A) (A) (A) (A) (A) (A) (A)
                 (A) (A) (A) (A) (A) (A) (A) (A) (A) (A) (A) (A)
                 (A) (A) (A) (A) (A) (A) (A) (A) (A) (A) (A) (A)
                 (A) (A) (A) (A) (A) (A) (A) (A) (A) (A) (A) (A)
                 (A) (A) (A) (A) (A) (A) (A) (A) (A) (A) (A) (A)
                 (A) (A) (A) (A) (A) (A) (A) (A) (A) (A) (A) (A)
                 (A) (A) (A) (A) (A) (A) (A) (A) (A) (A) (A) (A)
                 (A) (A) (A) (A) (A) (A) (A) (A) (A) (A) (A) (A)
                 (A) (A) (A) (A) (A) (A) (A) (A) (A) (A) (A) (A)
                 (A) (A) (A) (A) (A) (A) (A) (A) (A) (A) (A) (A)
                 (A) (A) (A) (A) (A) (A) (A) (A) (A) (A) (A) (A)
                 (A) (A) (A) (A) (A) (A) (A) (A) (A) (A) (A) (A)
                 (A) (A) (A) (A) (A) (A) (A) (A) (A) (A) (A) (A)
                 (A) (A) (A) (A) (A) (A)
 The electronic state is 1-A.
 Alpha  occ. eigenvalues --  -89.09865 -89.09257 -88.91378 -88.90778 -19.14300
 Alpha  occ. eigenvalues --  -19.14218 -19.13688 -19.13608 -14.41407 -14.41368
 Alpha  occ. eigenvalues --  -10.26602 -10.26199 -10.25993 -10.25877 -10.25700
 Alpha  occ. eigenvalues --  -10.25647 -10.24412 -10.24095 -10.22934 -10.22841
 Alpha  occ. eigenvalues --  -10.22800 -10.22729 -10.22653 -10.22607 -10.22463
 Alpha  occ. eigenvalues --  -10.22404  -8.17453  -8.16844  -8.00070  -7.99465
 Alpha  occ. eigenvalues --   -6.13505  -6.13441  -6.13362  -6.12896  -6.12833
 Alpha  occ. eigenvalues --   -6.12753  -5.96607  -5.96002  -5.95935  -5.95331
 Alpha  occ. eigenvalues --   -5.95096  -5.94487  -1.09774  -1.09164  -1.09066
 Alpha  occ. eigenvalues --   -0.96864  -0.96254  -0.91099  -0.90318  -0.87739
 Alpha  occ. eigenvalues --   -0.86856  -0.83859  -0.82551  -0.81172  -0.79447
 Alpha  occ. eigenvalues --   -0.78787  -0.78459  -0.75383  -0.73045  -0.68567
 Alpha  occ. eigenvalues --   -0.65614  -0.65318  -0.65106  -0.63036  -0.62261
 Alpha  occ. eigenvalues --   -0.60168  -0.58339  -0.54191  -0.53611  -0.52519
 Alpha  occ. eigenvalues --   -0.51971  -0.51720  -0.51307  -0.50125  -0.50095
 Alpha  occ. eigenvalues --   -0.49539  -0.49487  -0.48420  -0.47644  -0.46660
 Alpha  occ. eigenvalues --   -0.46373  -0.46308  -0.45998  -0.45728  -0.45531
 Alpha  occ. eigenvalues --   -0.43862  -0.43266  -0.43028  -0.42637  -0.40628
 Alpha  occ. eigenvalues --   -0.40244  -0.40047  -0.39634  -0.38827  -0.38623
 Alpha  occ. eigenvalues --   -0.36840  -0.36481  -0.30827  -0.30359  -0.30244
 Alpha  occ. eigenvalues --   -0.29741  -0.29452  -0.28934  -0.28761  -0.28527
 Alpha  occ. eigenvalues --   -0.28282  -0.27979  -0.27614  -0.27295  -0.27097
 Alpha  occ. eigenvalues --   -0.26484  -0.22059
 Alpha virt. eigenvalues --   -0.10558  -0.08651  -0.07826  -0.04479  -0.04189
 Alpha virt. eigenvalues --   -0.03181  -0.02452  -0.00236   0.00830   0.04053
 Alpha virt. eigenvalues --    0.04292   0.04669   0.04891   0.05220   0.05806
 Alpha virt. eigenvalues --    0.06347   0.06914   0.07547   0.08044   0.09738
 Alpha virt. eigenvalues --    0.10185   0.10350   0.10772   0.11344   0.12148
 Alpha virt. eigenvalues --    0.12237   0.12775   0.13317   0.13786   0.14760
 Alpha virt. eigenvalues --    0.15238   0.15755   0.16170   0.16697   0.17101
 Alpha virt. eigenvalues --    0.19102   0.19553   0.20984   0.22400   0.25647
 Alpha virt. eigenvalues --    0.26478   0.28466   0.29514   0.29866   0.30665
 Alpha virt. eigenvalues --    0.30973   0.31446   0.32561   0.32884   0.33472
 Alpha virt. eigenvalues --    0.33949   0.34916   0.35550   0.37503   0.38117
 Alpha virt. eigenvalues --    0.38683   0.39368   0.40027   0.40521   0.40702
 Alpha virt. eigenvalues --    0.41223   0.44661   0.45754   0.46925   0.47320
 Alpha virt. eigenvalues --    0.47966   0.48678   0.49993   0.50706   0.51871
 Alpha virt. eigenvalues --    0.52782   0.53312   0.54663   0.55073   0.55483
 Alpha virt. eigenvalues --    0.55601   0.55754   0.56003   0.57108   0.57628
 Alpha virt. eigenvalues --    0.58249   0.58437   0.58783   0.59835   0.60431
 Alpha virt. eigenvalues --    0.61271   0.61856   0.62621   0.63299   0.63537
 Alpha virt. eigenvalues --    0.64089   0.64945   0.65116   0.66372   0.66860
 Alpha virt. eigenvalues --    0.67722   0.68619   0.70112   0.72755   0.74432
 Alpha virt. eigenvalues --    0.75026   0.75517   0.76075   0.77129   0.77584
 Alpha virt. eigenvalues --    0.79137   0.81112   0.81555   0.82404   0.83300
 Alpha virt. eigenvalues --    0.83785   0.83942   0.84929   0.85587   0.86157
 Alpha virt. eigenvalues --    0.87198   0.87467   0.87688   0.88860   0.89181
 Alpha virt. eigenvalues --    0.89538   0.89988   0.90200   0.90658   0.91011
 Alpha virt. eigenvalues --    0.91290   0.94570   0.96074   0.96733   0.96818
 Alpha virt. eigenvalues --    0.97363   0.99196   1.00224   1.01113   1.01581
 Alpha virt. eigenvalues --    1.02509   1.02899   1.03116   1.04370   1.05100
 Alpha virt. eigenvalues --    1.05868   1.06747   1.07626   1.11704   1.12038
 Alpha virt. eigenvalues --    1.12971   1.13932   1.14159   1.15720   1.16526
 Alpha virt. eigenvalues --    1.17602   1.18478   1.19509   1.19686   1.21304
 Alpha virt. eigenvalues --    1.22324   1.22624   1.23876   1.24668   1.27217
 Alpha virt. eigenvalues --    1.30987   1.40040   1.43887   1.46230   1.47483
 Alpha virt. eigenvalues --    1.47761   1.48487   1.49352   1.55095   1.72368
 Alpha virt. eigenvalues --    1.75348   1.75965   1.85489   1.94176
          Condensed to atoms (all electrons):
              1          2          3          4          5          6
     1  N    6.989858   0.310978  -0.090795  -0.009150  -0.000001   0.000001
     2  N    0.310978   6.985501   0.154184  -0.077609   0.005115   0.000186
     3  C   -0.090795   0.154184   5.072403   0.434718  -0.023614  -0.025481
     4  C   -0.009150  -0.077609   0.434718   5.059317   0.484881  -0.047952
     5  C   -0.000001   0.005115  -0.023614   0.484881   4.958074   0.515149
     6  C    0.000001   0.000186  -0.025481  -0.047952   0.515149   4.921025
     7  C   -0.000170   0.004445  -0.036056  -0.036473  -0.049563   0.519269
     8  C    0.005279  -0.049400   0.481542  -0.075886  -0.035974  -0.045443
     9  C    0.151820  -0.091002  -0.011653   0.004315  -0.000753   0.000013
    10  C   -0.049520   0.005163   0.000917  -0.002000  -0.000005   0.000001
    11  C    0.004498  -0.000158  -0.000007  -0.000058   0.000006   0.000000
    12  C    0.000153  -0.000005   0.000017   0.000103  -0.000004   0.000000
    13  C    0.005250   0.000012  -0.000776   0.000018  -0.000123  -0.000003
    14  C   -0.077965  -0.008909   0.004161   0.001074   0.000021   0.000101
    15  C    0.000000   0.000000   0.000491   0.006692  -0.049706   0.222632
    16  S    0.000000   0.000000  -0.000004  -0.000432   0.003396  -0.044164
    17  S    0.000000   0.000000   0.000000  -0.000001  -0.000076   0.003828
    18  O    0.000000   0.000000   0.000000   0.000000   0.000000  -0.000009
    19  O    0.000000   0.000000   0.000000   0.000000  -0.000002   0.000283
    20  C    0.000000   0.000000   0.000000   0.000000   0.000000  -0.000133
    21  C   -0.000001   0.000000   0.000000   0.000000   0.000000   0.000000
    22  S    0.000000   0.000000   0.000000   0.000009   0.000001   0.000000
    23  S    0.000000   0.000000   0.000000   0.000000   0.000000   0.000000
    24  O    0.000000   0.000000   0.000000   0.000000   0.000000   0.000000
    25  O    0.000000   0.000000   0.000000   0.000000   0.000000   0.000000
    26  C    0.000000   0.000000   0.000000   0.000000   0.000000   0.000000
    27  H    0.000699  -0.008337  -0.046803   0.359024  -0.026008   0.003990
    28  H    0.000007  -0.000108   0.003220  -0.026291   0.353154  -0.040277
    29  H    0.000002  -0.000084   0.003653   0.000696   0.004102  -0.038520
    30  H    0.000290   0.001196  -0.039036   0.005617   0.000390   0.004123
    31  H    0.001137   0.000317   0.000119  -0.000010   0.000001   0.000000
    32  H   -0.000088   0.000002   0.000000  -0.000001   0.000000   0.000000
    33  H   -0.000101   0.000007   0.000008  -0.000018   0.000005   0.000001
    34  H   -0.008409   0.000746   0.006336  -0.000702  -0.000308   0.000026
    35  H    0.000000   0.000000  -0.000005  -0.000154   0.003248  -0.030306
    36  H    0.000000   0.000000  -0.000003   0.000307  -0.003884  -0.029414
    37  H    0.000000   0.000000   0.000000   0.000000   0.000000   0.000000
    38  H    0.000000   0.000000   0.000000   0.000000   0.000000   0.000000
    39  H    0.000000   0.000000   0.000000   0.000000  -0.000004   0.000028
    40  H    0.000000   0.000000   0.000000   0.000000   0.000000   0.000000
    41  H    0.000000   0.000000   0.000000   0.000000   0.000000   0.000000
    42  H    0.000000   0.000000   0.000000   0.000000   0.000000   0.000000
    43  H    0.000000   0.000000   0.000000   0.000000   0.000000   0.000000
    44  H    0.000000   0.000000   0.000000   0.000000   0.000000   0.000000
              7          8          9         10         11         12
     1  N   -0.000170   0.005279   0.151820  -0.049520   0.004498   0.000153
     2  N    0.004445  -0.049400  -0.091002   0.005163  -0.000158  -0.000005
     3  C   -0.036056   0.481542  -0.011653   0.000917  -0.000007   0.000017
     4  C   -0.036473  -0.075886   0.004315  -0.002000  -0.000058   0.000103
     5  C   -0.049563  -0.035974  -0.000753  -0.000005   0.000006  -0.000004
     6  C    0.519269  -0.045443   0.000013   0.000001   0.000000   0.000000
     7  C    4.957754   0.495597  -0.000001   0.000000   0.000000   0.000000
     8  C    0.495597   4.980594   0.000842  -0.000028   0.000000   0.000001
     9  C   -0.000001   0.000842   5.068868   0.482908  -0.036752  -0.026151
    10  C    0.000000  -0.000028   0.482908   4.976480   0.499559  -0.045634
    11  C    0.000000   0.000000  -0.036752   0.499559   4.958793   0.513624
    12  C    0.000000   0.000001  -0.026151  -0.045634   0.513624   4.919411
    13  C    0.000006  -0.000007  -0.020447  -0.036806  -0.047842   0.520963
    14  C   -0.000054  -0.001876   0.434227  -0.074416  -0.037651  -0.046280
    15  C   -0.053072   0.006552   0.000000   0.000000   0.000000   0.000000
    16  S    0.003829  -0.000452   0.000000   0.000000   0.000000   0.000000
    17  S   -0.000005  -0.000004   0.000000   0.000000   0.000000   0.000000
    18  O    0.000000   0.000000   0.000000   0.000000   0.000000   0.000000
    19  O   -0.000006   0.000000   0.000000   0.000000   0.000000   0.000000
    20  C    0.000000   0.000000   0.000000   0.000000   0.000000   0.000000
    21  C    0.000000   0.000000   0.000327   0.006446  -0.049476   0.222926
    22  S    0.000000   0.000000  -0.000001  -0.000430   0.003250  -0.044450
    23  S    0.000000   0.000000   0.000000  -0.000002  -0.000079   0.003935
    24  O    0.000000   0.000000   0.000000   0.000000   0.000000  -0.000010
    25  O    0.000000   0.000000   0.000000   0.000000  -0.000002   0.000277
    26  C    0.000000   0.000000   0.000000   0.000000   0.000000  -0.000135
    27  H    0.000681   0.003491   0.006234   0.001045   0.000239   0.000031
    28  H    0.004202   0.000725   0.000009  -0.000003   0.000000   0.000001
    29  H    0.357135  -0.027267   0.000000   0.000000   0.000000   0.000000
    30  H   -0.030456   0.351445   0.000116  -0.000001   0.000000   0.000000
    31  H    0.000000  -0.000001  -0.038396   0.351410  -0.031504   0.004106
    32  H    0.000000   0.000000   0.003829  -0.027987   0.355113  -0.041229
    33  H    0.000000  -0.000002   0.003186   0.000729   0.004088  -0.037900
    34  H    0.000191   0.001024  -0.046212   0.003496   0.000714   0.004064
    35  H   -0.003018   0.000220   0.000000   0.000000   0.000000   0.000000
    36  H    0.003474  -0.000188   0.000000   0.000000   0.000000   0.000000
    37  H    0.000000   0.000000   0.000000   0.000000   0.000000   0.000000
    38  H    0.000000   0.000000   0.000000   0.000000   0.000000   0.000000
    39  H    0.000000   0.000000   0.000000   0.000000   0.000000   0.000000
    40  H    0.000000   0.000000   0.000009  -0.000169   0.003039  -0.030022
    41  H    0.000000   0.000000   0.000018   0.000231  -0.003484  -0.029027
    42  H    0.000000   0.000000   0.000000   0.000000   0.000000   0.000000
    43  H    0.000000   0.000000   0.000000   0.000000   0.000000   0.000000
    44  H    0.000000   0.000000   0.000000   0.000000  -0.000004   0.000027
             13         14         15         16         17         18
     1  N    0.005250  -0.077965   0.000000   0.000000   0.000000   0.000000
     2  N    0.000012  -0.008909   0.000000   0.000000   0.000000   0.000000
     3  C   -0.000776   0.004161   0.000491  -0.000004   0.000000   0.000000
     4  C    0.000018   0.001074   0.006692  -0.000432  -0.000001   0.000000
     5  C   -0.000123   0.000021  -0.049706   0.003396  -0.000076   0.000000
     6  C   -0.000003   0.000101   0.222632  -0.044164   0.003828  -0.000009
     7  C    0.000006  -0.000054  -0.053072   0.003829  -0.000005   0.000000
     8  C   -0.000007  -0.001876   0.006552  -0.000452  -0.000004   0.000000
     9  C   -0.020447   0.434227   0.000000   0.000000   0.000000   0.000000
    10  C   -0.036806  -0.074416   0.000000   0.000000   0.000000   0.000000
    11  C   -0.047842  -0.037651   0.000000   0.000000   0.000000   0.000000
    12  C    0.520963  -0.046280   0.000000   0.000000   0.000000   0.000000
    13  C    4.962310   0.475567   0.000000   0.000000   0.000000   0.000000
    14  C    0.475567   5.067106   0.000001   0.000000   0.000000   0.000000
    15  C    0.000000   0.000001   5.700237   0.098068   0.013185   0.000851
    16  S    0.000000   0.000000   0.098068  16.140673  -0.120197  -0.051082
    17  S    0.000000   0.000000   0.013185  -0.120197  15.096567   0.174044
    18  O    0.000000   0.000000   0.000851  -0.051082   0.174044   8.572637
    19  O    0.000000   0.000000   0.003354  -0.075840   0.157686  -0.075861
    20  C    0.000000   0.000000  -0.000232  -0.084262  -0.189675  -0.059800
    21  C   -0.054824   0.007433   0.000000   0.000000   0.000000   0.000000
    22  S    0.004076  -0.000485   0.000000   0.000000   0.000000   0.000000
    23  S   -0.000003  -0.000005   0.000000   0.000000   0.000000   0.000000
    24  O    0.000000   0.000000   0.000000   0.000000   0.000000   0.000000
    25  O   -0.000006   0.000000   0.000000   0.000000   0.000000   0.000000
    26  C    0.000000   0.000000   0.000000   0.000000   0.000000   0.000000
    27  H   -0.000325  -0.000818  -0.000188   0.000001   0.000000   0.000000
    28  H    0.000005  -0.000022  -0.007332   0.000953   0.000038   0.000000
    29  H    0.000000  -0.000001  -0.006730   0.000829   0.000003   0.000000
    30  H    0.000001  -0.000010  -0.000180  -0.000001   0.000000   0.000000
    31  H    0.000303   0.005726   0.000000   0.000000   0.000000   0.000000
    32  H    0.004305   0.000640   0.000000   0.000000   0.000000   0.000000
    33  H    0.354852  -0.026068   0.000000   0.000000   0.000000   0.000000
    34  H   -0.026087   0.359365  -0.000001   0.000000   0.000000   0.000000
    35  H    0.000000   0.000000   0.351938  -0.057204   0.000023   0.000088
    36  H    0.000000   0.000000   0.349584  -0.063516  -0.004220  -0.000015
    37  H    0.000000   0.000000   0.000061  -0.000577  -0.002275   0.000481
    38  H    0.000000   0.000000  -0.000005   0.001873  -0.015204  -0.001429
    39  H    0.000000   0.000000   0.000225  -0.000782  -0.003383   0.001852
    40  H   -0.002759   0.000174   0.000000   0.000000   0.000000   0.000000
    41  H    0.003599  -0.000230   0.000000   0.000000   0.000000   0.000000
    42  H    0.000000   0.000000   0.000000   0.000000   0.000000   0.000000
    43  H    0.000000   0.000000   0.000000   0.000000   0.000000   0.000000
    44  H    0.000000   0.000000   0.000000   0.000000   0.000000   0.000000
             19         20         21         22         23         24
     1  N    0.000000   0.000000  -0.000001   0.000000   0.000000   0.000000
     2  N    0.000000   0.000000   0.000000   0.000000   0.000000   0.000000
     3  C    0.000000   0.000000   0.000000   0.000000   0.000000   0.000000
     4  C    0.000000   0.000000   0.000000   0.000009   0.000000   0.000000
     5  C   -0.000002   0.000000   0.000000   0.000001   0.000000   0.000000
     6  C    0.000283  -0.000133   0.000000   0.000000   0.000000   0.000000
     7  C   -0.000006   0.000000   0.000000   0.000000   0.000000   0.000000
     8  C    0.000000   0.000000   0.000000   0.000000   0.000000   0.000000
     9  C    0.000000   0.000000   0.000327  -0.000001   0.000000   0.000000
    10  C    0.000000   0.000000   0.006446  -0.000430  -0.000002   0.000000
    11  C    0.000000   0.000000  -0.049476   0.003250  -0.000079   0.000000
    12  C    0.000000   0.000000   0.222926  -0.044450   0.003935  -0.000010
    13  C    0.000000   0.000000  -0.054824   0.004076  -0.000003   0.000000
    14  C    0.000000   0.000000   0.007433  -0.000485  -0.000005   0.000000
    15  C    0.003354  -0.000232   0.000000   0.000000   0.000000   0.000000
    16  S   -0.075840  -0.084262   0.000000   0.000000   0.000000   0.000000
    17  S    0.157686  -0.189675   0.000000   0.000000   0.000000   0.000000
    18  O   -0.075861  -0.059800   0.000000   0.000000   0.000000   0.000000
    19  O    8.624315  -0.059077   0.000000   0.000000   0.000000   0.000000
    20  C   -0.059077   6.025357   0.000000   0.000000   0.000000   0.000000
    21  C    0.000000   0.000000   5.699450   0.098108   0.012824   0.000846
    22  S    0.000000   0.000000   0.098108  16.155913  -0.124243  -0.050976
    23  S    0.000000   0.000000   0.012824  -0.124243  15.098159   0.173332
    24  O    0.000000   0.000000   0.000846  -0.050976   0.173332   8.574446
    25  O    0.000000   0.000000   0.003384  -0.076043   0.158906  -0.075887
    26  C    0.000000   0.000000  -0.000204  -0.084210  -0.188575  -0.059736
    27  H    0.000000   0.000000  -0.000001   0.000008   0.000000   0.000000
    28  H    0.000000  -0.000006   0.000000   0.000002   0.000000   0.000000
    29  H    0.000003   0.000000   0.000000   0.000000   0.000000   0.000000
    30  H    0.000000   0.000000   0.000000   0.000000   0.000000   0.000000
    31  H    0.000000   0.000000  -0.000168   0.000001   0.000000   0.000000
    32  H    0.000000   0.000000  -0.007641   0.000916   0.000027   0.000000
    33  H    0.000000   0.000000  -0.006891   0.000975  -0.000002   0.000000
    34  H    0.000000   0.000000  -0.000184  -0.000002   0.000000   0.000000
    35  H    0.009699  -0.000018   0.000000   0.000000   0.000000   0.000000
    36  H    0.000273   0.003119   0.000000   0.000000   0.000000   0.000000
    37  H    0.001738   0.319921   0.000000   0.000000   0.000000   0.000000
    38  H   -0.001273   0.364273   0.000000   0.000000   0.000000   0.000000
    39  H    0.000595   0.314595   0.000000   0.000000   0.000000   0.000000
    40  H    0.000000   0.000000   0.352652  -0.057823   0.000213   0.000087
    41  H    0.000000   0.000000   0.349589  -0.063616  -0.004104  -0.000014
    42  H    0.000000   0.000000  -0.000005   0.001865  -0.015363  -0.001438
    43  H    0.000000   0.000000   0.000063  -0.000566  -0.002161   0.000481
    44  H    0.000000   0.000000   0.000223  -0.000775  -0.003411   0.001855
             25         26         27         28         29         30
     1  N    0.000000   0.000000   0.000699   0.000007   0.000002   0.000290
     2  N    0.000000   0.000000  -0.008337  -0.000108  -0.000084   0.001196
     3  C    0.000000   0.000000  -0.046803   0.003220   0.003653  -0.039036
     4  C    0.000000   0.000000   0.359024  -0.026291   0.000696   0.005617
     5  C    0.000000   0.000000  -0.026008   0.353154   0.004102   0.000390
     6  C    0.000000   0.000000   0.003990  -0.040277  -0.038520   0.004123
     7  C    0.000000   0.000000   0.000681   0.004202   0.357135  -0.030456
     8  C    0.000000   0.000000   0.003491   0.000725  -0.027267   0.351445
     9  C    0.000000   0.000000   0.006234   0.000009   0.000000   0.000116
    10  C    0.000000   0.000000   0.001045  -0.000003   0.000000  -0.000001
    11  C   -0.000002   0.000000   0.000239   0.000000   0.000000   0.000000
    12  C    0.000277  -0.000135   0.000031   0.000001   0.000000   0.000000
    13  C   -0.000006   0.000000  -0.000325   0.000005   0.000000   0.000001
    14  C    0.000000   0.000000  -0.000818  -0.000022  -0.000001  -0.000010
    15  C    0.000000   0.000000  -0.000188  -0.007332  -0.006730  -0.000180
    16  S    0.000000   0.000000   0.000001   0.000953   0.000829  -0.000001
    17  S    0.000000   0.000000   0.000000   0.000038   0.000003   0.000000
    18  O    0.000000   0.000000   0.000000   0.000000   0.000000   0.000000
    19  O    0.000000   0.000000   0.000000   0.000000   0.000003   0.000000
    20  C    0.000000   0.000000   0.000000  -0.000006   0.000000   0.000000
    21  C    0.003384  -0.000204  -0.000001   0.000000   0.000000   0.000000
    22  S   -0.076043  -0.084210   0.000008   0.000002   0.000000   0.000000
    23  S    0.158906  -0.188575   0.000000   0.000000   0.000000   0.000000
    24  O   -0.075887  -0.059736   0.000000   0.000000   0.000000   0.000000
    25  O    8.622090  -0.059193   0.000000   0.000000   0.000000   0.000000
    26  C   -0.059193   6.023958   0.000000   0.000000   0.000000   0.000000
    27  H    0.000000   0.000000   0.556168  -0.003554   0.000011  -0.000126
    28  H    0.000000   0.000000  -0.003554   0.567909  -0.000159   0.000014
    29  H    0.000000   0.000000   0.000011  -0.000159   0.547716  -0.003517
    30  H    0.000000   0.000000  -0.000126   0.000014  -0.003517   0.550604
    31  H    0.000000   0.000000   0.000012   0.000000   0.000000   0.000000
    32  H    0.000000  -0.000005  -0.000002   0.000000   0.000000   0.000000
    33  H    0.000004   0.000000  -0.000005  -0.000001   0.000000   0.000000
    34  H    0.000000   0.000000   0.000101  -0.000005  -0.000002   0.000011
    35  H    0.000000   0.000000   0.000002   0.000118   0.003015   0.000001
    36  H    0.000000   0.000000  -0.000002   0.003375   0.000085   0.000002
    37  H    0.000000   0.000000   0.000000   0.000000   0.000000   0.000000
    38  H    0.000000   0.000000   0.000000   0.000000   0.000000   0.000000
    39  H    0.000000   0.000000   0.000000   0.000006   0.000000   0.000000
    40  H    0.009648  -0.000019   0.000000   0.000000   0.000000   0.000000
    41  H    0.000269   0.003078   0.000000   0.000000   0.000000   0.000000
    42  H   -0.001275   0.364519   0.000000   0.000000   0.000000   0.000000
    43  H    0.001737   0.319780   0.000000   0.000000   0.000000   0.000000
    44  H    0.000595   0.314565   0.000000   0.000000   0.000000   0.000000
             31         32         33         34         35         36
     1  N    0.001137  -0.000088  -0.000101  -0.008409   0.000000   0.000000
     2  N    0.000317   0.000002   0.000007   0.000746   0.000000   0.000000
     3  C    0.000119   0.000000   0.000008   0.006336  -0.000005  -0.000003
     4  C   -0.000010  -0.000001  -0.000018  -0.000702  -0.000154   0.000307
     5  C    0.000001   0.000000   0.000005  -0.000308   0.003248  -0.003884
     6  C    0.000000   0.000000   0.000001   0.000026  -0.030306  -0.029414
     7  C    0.000000   0.000000   0.000000   0.000191  -0.003018   0.003474
     8  C   -0.000001   0.000000  -0.000002   0.001024   0.000220  -0.000188
     9  C   -0.038396   0.003829   0.003186  -0.046212   0.000000   0.000000
    10  C    0.351410  -0.027987   0.000729   0.003496   0.000000   0.000000
    11  C   -0.031504   0.355113   0.004088   0.000714   0.000000   0.000000
    12  C    0.004106  -0.041229  -0.037900   0.004064   0.000000   0.000000
    13  C    0.000303   0.004305   0.354852  -0.026087   0.000000   0.000000
    14  C    0.005726   0.000640  -0.026068   0.359365   0.000000   0.000000
    15  C    0.000000   0.000000   0.000000  -0.000001   0.351938   0.349584
    16  S    0.000000   0.000000   0.000000   0.000000  -0.057204  -0.063516
    17  S    0.000000   0.000000   0.000000   0.000000   0.000023  -0.004220
    18  O    0.000000   0.000000   0.000000   0.000000   0.000088  -0.000015
    19  O    0.000000   0.000000   0.000000   0.000000   0.009699   0.000273
    20  C    0.000000   0.000000   0.000000   0.000000  -0.000018   0.003119
    21  C   -0.000168  -0.007641  -0.006891  -0.000184   0.000000   0.000000
    22  S    0.000001   0.000916   0.000975  -0.000002   0.000000   0.000000
    23  S    0.000000   0.000027  -0.000002   0.000000   0.000000   0.000000
    24  O    0.000000   0.000000   0.000000   0.000000   0.000000   0.000000
    25  O    0.000000   0.000000   0.000004   0.000000   0.000000   0.000000
    26  C    0.000000  -0.000005   0.000000   0.000000   0.000000   0.000000
    27  H    0.000012  -0.000002  -0.000005   0.000101   0.000002  -0.000002
    28  H    0.000000   0.000000  -0.000001  -0.000005   0.000118   0.003375
    29  H    0.000000   0.000000   0.000000  -0.000002   0.003015   0.000085
    30  H    0.000000   0.000000   0.000000   0.000011   0.000001   0.000002
    31  H    0.553973  -0.003814   0.000013  -0.000126   0.000000   0.000000
    32  H   -0.003814   0.571561  -0.000161   0.000011   0.000000   0.000000
    33  H    0.000013  -0.000161   0.550488  -0.003393   0.000000   0.000000
    34  H   -0.000126   0.000011  -0.003393   0.551828   0.000000   0.000000
    35  H    0.000000   0.000000   0.000000   0.000000   0.514704  -0.030950
    36  H    0.000000   0.000000   0.000000   0.000000  -0.030950   0.573686
    37  H    0.000000   0.000000   0.000000   0.000000  -0.000005   0.000016
    38  H    0.000000   0.000000   0.000000   0.000000   0.000006  -0.000064
    39  H    0.000000   0.000000   0.000000   0.000000  -0.000018   0.001167
    40  H    0.000002   0.000093   0.002910  -0.000003   0.000000   0.000000
    41  H   -0.000007   0.003557   0.000073   0.000002   0.000000   0.000000
    42  H    0.000000   0.000000   0.000000   0.000000   0.000000   0.000000
    43  H    0.000000   0.000000   0.000000   0.000000   0.000000   0.000000
    44  H    0.000000   0.000006   0.000000   0.000000   0.000000   0.000000
             37         38         39         40         41         42
     1  N    0.000000   0.000000   0.000000   0.000000   0.000000   0.000000
     2  N    0.000000   0.000000   0.000000   0.000000   0.000000   0.000000
     3  C    0.000000   0.000000   0.000000   0.000000   0.000000   0.000000
     4  C    0.000000   0.000000   0.000000   0.000000   0.000000   0.000000
     5  C    0.000000   0.000000  -0.000004   0.000000   0.000000   0.000000
     6  C    0.000000   0.000000   0.000028   0.000000   0.000000   0.000000
     7  C    0.000000   0.000000   0.000000   0.000000   0.000000   0.000000
     8  C    0.000000   0.000000   0.000000   0.000000   0.000000   0.000000
     9  C    0.000000   0.000000   0.000000   0.000009   0.000018   0.000000
    10  C    0.000000   0.000000   0.000000  -0.000169   0.000231   0.000000
    11  C    0.000000   0.000000   0.000000   0.003039  -0.003484   0.000000
    12  C    0.000000   0.000000   0.000000  -0.030022  -0.029027   0.000000
    13  C    0.000000   0.000000   0.000000  -0.002759   0.003599   0.000000
    14  C    0.000000   0.000000   0.000000   0.000174  -0.000230   0.000000
    15  C    0.000061  -0.000005   0.000225   0.000000   0.000000   0.000000
    16  S   -0.000577   0.001873  -0.000782   0.000000   0.000000   0.000000
    17  S   -0.002275  -0.015204  -0.003383   0.000000   0.000000   0.000000
    18  O    0.000481  -0.001429   0.001852   0.000000   0.000000   0.000000
    19  O    0.001738  -0.001273   0.000595   0.000000   0.000000   0.000000
    20  C    0.319921   0.364273   0.314595   0.000000   0.000000   0.000000
    21  C    0.000000   0.000000   0.000000   0.352652   0.349589  -0.000005
    22  S    0.000000   0.000000   0.000000  -0.057823  -0.063616   0.001865
    23  S    0.000000   0.000000   0.000000   0.000213  -0.004104  -0.015363
    24  O    0.000000   0.000000   0.000000   0.000087  -0.000014  -0.001438
    25  O    0.000000   0.000000   0.000000   0.009648   0.000269  -0.001275
    26  C    0.000000   0.000000   0.000000  -0.000019   0.003078   0.364519
    27  H    0.000000   0.000000   0.000000   0.000000   0.000000   0.000000
    28  H    0.000000   0.000000   0.000006   0.000000   0.000000   0.000000
    29  H    0.000000   0.000000   0.000000   0.000000   0.000000   0.000000
    30  H    0.000000   0.000000   0.000000   0.000000   0.000000   0.000000
    31  H    0.000000   0.000000   0.000000   0.000002  -0.000007   0.000000
[...]
    19  O    0.000000   0.000000   0.000000   0.000000   0.030384   0.000197
    20  C    0.000000   0.000000   0.000000   0.000000   0.001041  -0.000052
    21  C   -0.000160  -0.007094  -0.007695  -0.000177   0.000000   0.000000
    22  S    0.000014   0.000731  -0.000740   0.000008   0.000000   0.000000
    23  S    0.000000   0.000009   0.000327   0.000006   0.000000   0.000000
    24  O    0.000000   0.000000  -0.000199   0.000000   0.000000   0.000000
    25  O    0.000000   0.000000   0.013323  -0.000002   0.000000   0.000000
    26  C    0.000000   0.000000   0.000046   0.000000   0.000000   0.000000
    27  H    0.000025  -0.000003  -0.000004   0.000086   0.000002  -0.000003
    28  H    0.000000   0.000000   0.000000  -0.000004   0.000140   0.003658
    29  H    0.000000   0.000000   0.000000  -0.000002   0.002720   0.000142
    30  H    0.000000   0.000000   0.000000   0.000016   0.000002   0.000002
    31  H    0.559474  -0.003924   0.000011  -0.000139   0.000000   0.000000
    32  H   -0.003924   0.583912  -0.000158   0.000012   0.000000   0.000000
    33  H    0.000011  -0.000158   0.522257  -0.003322   0.000000   0.000000
    34  H   -0.000139   0.000012  -0.003322   0.552008   0.000000   0.000000
    35  H    0.000000   0.000000   0.000000   0.000000   0.483234  -0.015433
    36  H    0.000000   0.000000   0.000000   0.000000  -0.015433   0.531118
    37  H    0.000000   0.000000   0.000000   0.000000  -0.000002   0.000000
    38  H    0.000000   0.000000   0.000000   0.000000  -0.000028   0.000000
    39  H    0.000000   0.000000   0.000000   0.000000   0.000063   0.000006
    40  H    0.000002   0.000122   0.003043  -0.000002   0.000000   0.000000
    41  H   -0.000006   0.003577   0.000138   0.000002   0.000000   0.000000
    42  H    0.000000   0.000000   0.000000   0.000000   0.000000   0.000000
    43  H    0.000000   0.000000  -0.000001   0.000000   0.000000   0.000000
    44  H    0.000000   0.000000   0.000000   0.000000   0.000000   0.000000
             37         38         39         40         41         42
     1  N    0.000000   0.000000   0.000000   0.000000   0.000000   0.000000
     2  N    0.000000   0.000000   0.000000   0.000000   0.000000   0.000000
     3  C    0.000000   0.000000   0.000000   0.000000   0.000000   0.000000
     4  C    0.000000   0.000000   0.000000   0.000000   0.000000   0.000000
     5  C    0.000000   0.000000   0.000000   0.000000   0.000000   0.000000
     6  C    0.000000   0.000000  -0.000003   0.000000   0.000000   0.000000
     7  C    0.000000   0.000000   0.000001   0.000000   0.000000   0.000000
     8  C    0.000000   0.000000   0.000000   0.000000   0.000000   0.000000
     9  C    0.000000   0.000000   0.000000   0.000012   0.000018   0.000000
    10  C    0.000000   0.000000   0.000000  -0.000172   0.000142   0.000000
    11  C    0.000000   0.000000   0.000000   0.002515  -0.000257   0.000000
    12  C    0.000000   0.000000   0.000000  -0.029439  -0.040995   0.000000
    13  C    0.000000   0.000000   0.000000  -0.000048   0.002438   0.000000
    14  C    0.000000   0.000000   0.000000   0.000178  -0.000205   0.000000
    15  C    0.000013  -0.000015   0.000100   0.000000   0.000000   0.000000
    16  S   -0.000548   0.002015  -0.000012   0.000000   0.000000   0.000000
    17  S   -0.011242  -0.015389  -0.007214   0.000000   0.000000   0.000000
    18  O    0.001351   0.000146   0.001474   0.000000   0.000000   0.000000
    19  O    0.001528  -0.000597   0.001963   0.000000   0.000000   0.000000
    20  C    0.329804   0.347312   0.325546   0.000000   0.000000   0.000000
    21  C    0.000000   0.000000   0.000000   0.333874   0.350459  -0.000015
    22  S    0.000000   0.000000   0.000000  -0.050461  -0.039407   0.002005
    23  S    0.000000   0.000000   0.000000  -0.007681   0.001115  -0.015740
    24  O    0.000000   0.000000   0.000000   0.000170  -0.000007   0.000153
    25  O    0.000000   0.000000   0.000000   0.027606   0.000172  -0.000604
    26  C    0.000000   0.000000   0.000000   0.000885  -0.000044   0.347879
    27  H    0.000000   0.000000   0.000000   0.000000   0.000000   0.000000
    28  H    0.000000   0.000000   0.000000   0.000000   0.000000   0.000000
    29  H   -0.000001   0.000000   0.000000   0.000000   0.000000   0.000000
    30  H    0.000000   0.000000   0.000000   0.000000   0.000000   0.000000
    31  H    0.000000   0.000000   0.000000   0.000002  -0.000006   0.000000
    32  H    0.000000   0.000000   0.000000   0.000122   0.003577   0.000000
    33  H    0.000000   0.000000   0.000000   0.003043   0.000138   0.000000
    34  H    0.000000   0.000000   0.000000  -0.000002   0.000002   0.000000
    35  H   -0.000002  -0.000028   0.000063   0.000000   0.000000   0.000000
    36  H    0.000000   0.000000   0.000006   0.000000   0.000000   0.000000
    37  H    0.492066  -0.018947  -0.018911   0.000000   0.000000   0.000000
    38  H   -0.018947   0.467595  -0.018108   0.000000   0.000000   0.000000
    39  H   -0.018911  -0.018108   0.491227   0.000000   0.000000   0.000000
    40  H    0.000000   0.000000   0.000000   0.487094  -0.015986  -0.000023
    41  H    0.000000   0.000000   0.000000  -0.015986   0.535330   0.000000
    42  H    0.000000   0.000000   0.000000  -0.000023   0.000000   0.466246
    43  H    0.000000   0.000000   0.000000  -0.000002   0.000000  -0.018894
    44  H    0.000000   0.000000   0.000000   0.000039   0.000004  -0.017845
             43         44
     1  N    0.000000   0.000000
     2  N    0.000000   0.000000
     3  C    0.000000   0.000000
     4  C    0.000000   0.000000
     5  C    0.000000   0.000000
     6  C    0.000000   0.000000
     7  C    0.000000   0.000000
     8  C    0.000000   0.000000
     9  C    0.000000   0.000000
    10  C    0.000000   0.000000
    11  C    0.000000   0.000000
    12  C    0.000000  -0.000002
    13  C    0.000000   0.000001
    14  C    0.000000   0.000000
    15  C    0.000000   0.000000
    16  S    0.000000   0.000000
    17  S    0.000000   0.000000
    18  O    0.000000   0.000000
    19  O    0.000000   0.000000
    20  C    0.000000   0.000000
    21  C    0.000010   0.000080
    22  S   -0.000448   0.000073
    23  S   -0.011205  -0.007264
    24  O    0.001320   0.001468
    25  O    0.001522   0.001929
    26  C    0.329504   0.326018
    27  H    0.000000   0.000000
    28  H    0.000000   0.000000
    29  H    0.000000   0.000000
    30  H    0.000000   0.000000
    31  H    0.000000   0.000000
    32  H    0.000000   0.000000
    33  H   -0.000001   0.000000
    34  H    0.000000   0.000000
    35  H    0.000000   0.000000
    36  H    0.000000   0.000000
    37  H    0.000000   0.000000
    38  H    0.000000   0.000000
    39  H    0.000000   0.000000
    40  H   -0.000002   0.000039
    41  H    0.000000   0.000004
    42  H   -0.018894  -0.017845
    43  H    0.492159  -0.018833
    44  H   -0.018833   0.488133
 Mulliken atomic charges:
              1
     1  N   -0.233232
     2  N   -0.232458
     3  C    0.095953
     4  C   -0.069403
     5  C   -0.153230
     6  C    0.162667
     7  C   -0.162874
     8  C   -0.094876
     9  C    0.098522
    10  C   -0.097409
    11  C   -0.149601
    12  C    0.158638
    13  C   -0.170297
    14  C   -0.072211
    15  C   -0.628501
    16  S    0.079721
    17  S    0.962295
    18  O   -0.535793
    19  O   -0.576710
    20  C   -0.605998
    21  C   -0.621348
    22  S    0.074367
    23  S    0.961992
    24  O   -0.541043
    25  O   -0.575624
    26  C   -0.606888
    27  H    0.153605
    28  H    0.140223
    29  H    0.178285
    30  H    0.156457
    31  H    0.152282
    32  H    0.132934
    33  H    0.179541
    34  H    0.156262
    35  H    0.251851
    36  H    0.207443
    37  H    0.224887
    38  H    0.236015
    39  H    0.223866
    40  H    0.248273
    41  H    0.203513
    42  H    0.236836
    43  H    0.224868
    44  H    0.226200
 Sum of Mulliken atomic charges =   0.00000
 Mulliken charges with hydrogens summed into heavy atoms:
              1
     1  N   -0.233232
     2  N   -0.232458
     3  C    0.095953
     4  C    0.084202
     5  C   -0.013007
     6  C    0.162667
     7  C    0.015411
     8  C    0.061581
     9  C    0.098522
    10  C    0.054873
    11  C   -0.016667
    12  C    0.158638
    13  C    0.009245
    14  C    0.084051
    15  C   -0.169207
    16  S    0.079721
    17  S    0.962295
    18  O   -0.535793
    19  O   -0.576710
    20  C    0.078769
    21  C   -0.169563
    22  S    0.074367
    23  S    0.961992
    24  O   -0.541043
    25  O   -0.575624
    26  C    0.081016
 Sum of Mulliken charges with hydrogens summed into heavy atoms =   0.00000
 Electronic spatial extent (au):  <R**2>=          19652.3153
 Charge=              0.0000 electrons
 Dipole moment (field-independent basis, Debye):
    X=             -4.6928    Y=             -8.0889    Z=             -1.9450  Tot=              9.5517
 Quadrupole moment (field-independent basis, Debye-Ang):
   XX=           -136.9546   YY=           -178.8783   ZZ=           -188.9010
   XY=            -16.3823   XZ=              2.9728   YZ=              1.1205
 Traceless Quadrupole moment (field-independent basis, Debye-Ang):
   XX=             31.2900   YY=            -10.6337   ZZ=            -20.6564
   XY=            -16.3823   XZ=              2.9728   YZ=              1.1205
 Octapole moment (field-independent basis, Debye-Ang**2):
  XXX=            -96.4176  YYY=           -240.0280  ZZZ=             -4.6555  XYY=            -58.3084
  XXY=           -331.3971  XXZ=            -41.1800  XZZ=              3.5606  YZZ=             13.0318
  YYZ=             -8.5127  XYZ=             24.1284
 Hexadecapole moment (field-independent basis, Debye-Ang**3):
 XXXX=         -17375.4161 YYYY=          -5347.3624 ZZZZ=          -1032.1027 XXXY=          -1100.6889
 XXXZ=            -12.0572 YYYX=            452.8240 YYYZ=           -112.8854 ZZZX=             18.3934
 ZZZY=             17.2724 XXYY=          -3208.9076 XXZZ=          -3738.2909 YYZZ=          -1005.0203
 XXYZ=             18.7175 YYXZ=             78.6885 ZZXY=             -4.0490
 N-N= 2.797964145473D+03 E-N=-1.178166044691D+04  KE= 2.613945130496D+03
 Breneman (CHELPG) radii used.
 Generate Potential Derived Charges using the Breneman model, NDens= 1.
 Grid spacing= 0.300 Box extension= 2.800
 NStep X,Y,Z=   69     50     31   Total possible points=      106950
 Number of Points to Fit=   27490

 **********************************************************************

            Electrostatic Properties Using The SCF Density

 **********************************************************************

       Atomic Center    1 is at  -0.927083  4.070720  0.106946
       Atomic Center    2 is at   0.312090  3.825834  0.205828
       Atomic Center    3 is at   0.906191  2.514830  0.103240
       Atomic Center    4 is at   0.547643  1.566232 -0.872094
       Atomic Center    5 is at   1.264714  0.375478 -0.970087
       Atomic Center    6 is at   2.336007  0.101811 -0.100311
       Atomic Center    7 is at   2.703954  1.069513  0.853182
       Atomic Center    8 is at   2.011386  2.276363  0.936206
       Atomic Center    9 is at  -1.968905  3.071835  0.094318
       Atomic Center   10 is at  -3.039625  3.303341 -0.784593
       Atomic Center   11 is at  -4.132975  2.439441 -0.793351
       Atomic Center   12 is at  -4.202208  1.360910  0.107233
       Atomic Center   13 is at  -3.152358  1.174345  1.026595
       Atomic Center   14 is at  -2.041255  2.016552  1.021054
       Atomic Center   15 is at   3.074835 -1.196491 -0.182171
       Atomic Center   16 is at   4.540950 -1.194035 -1.437929
       Atomic Center   17 is at   6.235828 -0.789506  0.198568
       Atomic Center   18 is at   7.095758  0.555830 -0.142657
       Atomic Center   19 is at   5.506082 -0.960106  1.663924
       Atomic Center   20 is at   7.370175 -2.285990 -0.024737
       Atomic Center   21 is at  -5.372196  0.429580  0.106832
       Atomic Center   22 is at  -5.233905 -1.003469 -1.184813
       Atomic Center   23 is at  -4.229013 -2.554807  0.325696
       Atomic Center   24 is at  -2.729521 -2.986356 -0.157618
       Atomic Center   25 is at  -4.469499 -1.947415  1.835842
       Atomic Center   26 is at  -5.361287 -4.059251  0.151438
       Atomic Center   27 is at  -0.277532  1.758691 -1.547068
       Atomic Center   28 is at   0.983454 -0.355537 -1.722433
       Atomic Center   29 is at   3.542725  0.873952  1.514030
       Atomic Center   30 is at   2.306653  3.044028  1.642574
       Atomic Center   31 is at  -2.993362  4.158231 -1.449930
       Atomic Center   32 is at  -4.945168  2.608890 -1.494522
       Atomic Center   33 is at  -3.207285  0.355141  1.736778
       Atomic Center   34 is at  -1.239010  1.859311  1.732392
       Atomic Center   35 is at   3.540422 -1.466434  0.773249
       Atomic Center   36 is at   2.450980 -2.023808 -0.529648
       Atomic Center   37 is at   7.747784 -2.243578 -1.044808
       Atomic Center   38 is at   8.164714 -2.170412  0.711789
       Atomic Center   39 is at   6.756483 -3.164989  0.159856
       Atomic Center   40 is at  -5.497527 -0.083849  1.066391
       Atomic Center   41 is at  -6.312495  0.911444 -0.174364
       Atomic Center   42 is at  -4.962598 -4.811644  0.831177
       Atomic Center   43 is at  -5.305204 -4.375991 -0.888542
       Atomic Center   44 is at  -6.356963 -3.726847  0.436868
   27490 points will be used for fitting atomic charges
 Fitting point charges to electrostatic potential
 Charges from ESP fit, RMS=   0.00502 RRMS=   0.23635:
 Charge=   0.00000 Dipole=    -4.7880    -7.7285    -1.9639 Tot=     9.3012
              1
     1  N   -0.344237
     2  N   -0.326500
     3  C    0.623009
     4  C   -0.322921
     5  C   -0.138302
     6  C   -0.015040
     7  C    0.010417
     8  C   -0.406145
     9  C    0.643909
    10  C   -0.385629
    11  C   -0.077126
    12  C   -0.085753
    13  C   -0.024978
    14  C   -0.373221
    15  C    0.135698
    16  S   -0.263492
    17  S    0.868359
    18  O   -0.503341
    19  O   -0.471044
    20  C   -0.267005
    21  C    0.255951
    22  S   -0.287983
    23  S    0.876262
    24  O   -0.522658
    25  O   -0.471658
    26  C   -0.243612
    27  H    0.176007
    28  H    0.147886
    29  H    0.104369
    30  H    0.174710
    31  H    0.167218
    32  H    0.145659
    33  H    0.097551
    34  H    0.193501
    35  H    0.002701
    36  H    0.079613
    37  H    0.148297
    38  H    0.164296
    39  H    0.100558
    40  H   -0.011679
    41  H    0.028287
    42  H    0.158162
    43  H    0.149234
    44  H    0.090667
 Charges from ESP fit with hydrogens summed into heavy atoms:
              1
     1  N   -0.344237
     2  N   -0.326500
     3  C    0.623009
     4  C   -0.146914
     5  C    0.009584
     6  C   -0.015040
     7  C    0.114786
     8  C   -0.231435
     9  C    0.643909
    10  C   -0.218411
    11  C    0.068534
    12  C   -0.085753
    13  C    0.072573
    14  C   -0.179720
    15  C    0.218013
    16  S   -0.263492
    17  S    0.868359
    18  O   -0.503341
    19  O   -0.471044
    20  C    0.146145
    21  C    0.272560
    22  S   -0.287983
    23  S    0.876262
    24  O   -0.522658
    25  O   -0.471658
    26  C    0.154451
    27  H    0.000000
    28  H    0.000000
    29  H    0.000000
    30  H    0.000000
    31  H    0.000000
    32  H    0.000000
    33  H    0.000000
    34  H    0.000000
    35  H    0.000000
    36  H    0.000000
    37  H    0.000000
    38  H    0.000000
    39  H    0.000000
    40  H    0.000000
    41  H    0.000000
    42  H    0.000000
    43  H    0.000000
    44  H    0.000000
 -----------------------------------------------------------------

              Electrostatic Properties (Atomic Units)

 -----------------------------------------------------------------
    Center     Electric         -------- Electric Field --------
               Potential          X             Y             Z
 -----------------------------------------------------------------
    1 Atom    -18.322474
    2 Atom    -18.322078
    3 Atom    -14.716803
    4 Atom    -14.745577
    5 Atom    -14.747330
    6 Atom    -14.734821
    7 Atom    -14.752853
    8 Atom    -14.750832
    9 Atom    -14.713534
   10 Atom    -14.745390
   11 Atom    -14.742887
   12 Atom    -14.730676
   13 Atom    -14.747884
   14 Atom    -14.744079
   15 Atom    -14.706969
   16 Atom    -59.192741
   17 Atom    -58.999774
   18 Atom    -22.323840
   19 Atom    -22.318735
   20 Atom    -14.684722
   21 Atom    -14.699607
   22 Atom    -59.186290
   23 Atom    -58.993041
   24 Atom    -22.317390
   25 Atom    -22.312890
   26 Atom    -14.678582
   27 Atom     -1.091613
   28 Atom     -1.094177
   29 Atom     -1.102290
   30 Atom     -1.099277
   31 Atom     -1.092503
   32 Atom     -1.088567
   33 Atom     -1.097570
   34 Atom     -1.091085
   35 Atom     -1.074294
   36 Atom     -1.073267
   37 Atom     -1.034725
   38 Atom     -1.035816
   39 Atom     -1.035580
   40 Atom     -1.069056
   41 Atom     -1.064930
   42 Atom     -1.029705
   43 Atom     -1.028490
   44 Atom     -1.029677
 -----------------------------------------------------------------
 1|1|UNPC-PHYS-7QD9NF3|FOpt|RB3LYP|6-31G|C16H18N2O4S4|PHILLII2|22-May-2
 026|0||# opt b3lyp/6-31g geom=connectivity pop=chelpg||ChelpG||0,1|N,-
 2.1200143668,1.3238896423,-0.1818266268|N,-1.8920347221,2.5558505398,-
 0.3704937494|C,-2.8258097813,3.6208346758,-0.094658485|C,-3.6084922934
 ,3.6940098106,1.0722709845|C,-4.388346001,4.8245023489,1.3078617693|C,
 -4.4139274746,5.8904757383,0.3901916914|C,-3.60583029,5.819070077,-0.7
 599664444|C,-2.799010069,4.7052020016,-0.9866137648|C,-3.4117395107,0.
 7602715681,0.1297885388|C,-3.4219685016,-0.2883058021,1.0640807922|C,-
 4.6124715617,-0.9525186973,1.3527637471|C,-5.8016818753,-0.6185262015,
 0.6794861502|C,-5.767492163,0.3919746674,-0.3002777079|C,-4.5867568744
 ,1.0814660023,-0.5729666803|C,-5.2858303372,7.0828113044,0.6274203634|
 S,-4.4608641727,8.4664593976,1.6910826615|S,-3.8024765136,9.8154532428
 ,-0.1693261509|O,-2.1923635585,10.0861660978,-0.1790126286|O,-4.544436
 1135,9.1682783588,-1.4882511777|C,-4.6728957915,11.4534281627,0.198751
 5637|C,-7.0837336668,-1.3268590419,0.9809091329|S,-8.0471543611,-0.597
 0320959,2.4909662843|S,-9.384935214,0.8917033953,1.1901585354|O,-9.102
 5516671,2.453741848,1.5756423311|O,-9.2503415502,0.3864578276,-0.36994
 11895|C,-11.1318670695,0.4488273401,1.7627391154|H,-3.6042334276,2.880
 2998585,1.7873954737|H,-4.9932237471,4.8763643115,2.2083875306|H,-3.60
 47252754,6.646914837,-1.4622288501|H,-2.1460334376,4.65315874,-1.85053
 5677|H,-2.4929346256,-0.5624091347,1.5513308967|H,-4.618443962,-1.7444
 596824,2.0962730957|H,-6.6772115629,0.6427280967,-0.8369385541|H,-4.57
 57226595,1.8591562493,-1.3275521934|H,-5.5558048343,7.5882478728,-0.30
 75204871|H,-6.1934065548,6.8456961654,1.1881969937|H,-4.2745669093,11.
 8142006382,1.1453820624|H,-4.4244317145,12.1158912854,-0.629819299|H,-
 5.7363757503,11.2300707424,0.2482768016|H,-7.7978004995,-1.2686210741,
 0.1521828724|H,-6.94623658,-2.372049853,1.2709048235|H,-11.8030446104,
 1.0909639154,1.1932872589|H,-11.1746050563,0.6561636388,2.8305462917|H
 ,-11.2705249922,-0.6053664158,1.532996614||Version=IA32W-G09RevC.01|St
 ate=1-A|HF=-2622.8972669|RMSD=6.742e-009|RMSF=2.069e-006|Dipole=-3.402
 9869,-0.4206899,1.537802|Quadrupole=-12.7567165,27.1071994,-14.3504829
 ,2.1328465,-2.257726,-3.5094877|PG=C01 [X(C16H18N2O4S4)]||@


 TO BEHOLD HARMS OF OUR OWN HANDS DOING,
 WHERE NONE BESIDE US WROUGHT,
 CAUSES SHARP RUING...

                                         SOPHOCLES
 Job cpu time:  0 days  1 hours 59 minutes 44.0 seconds.
 File lengths (MBytes):  RWF=     66 Int=      0 D2E=      0 Chk=      8 Scr=      1
 Normal termination of Gaussian 09 at Fri May 22 19:01:08 2026.
